# LAMMPS data file written by Ovito Basic 3.0.0-dev791
1556 atoms
4 atom types
-12.53045 12.53045 xlo xhi
-48.7733 48.7733 ylo yhi
-5.75245 5.75245 zlo zhi

Atoms  # charge

1370 4 0.0456507 -8.9503250087 -42.7165828327 -2.876225
1433 4 0.0456499 -8.9503250087 -42.7165828327 0.0
1307 4 0.0456505 -8.9503250087 -42.7165828327 -5.7524499936
1496 4 0.0456496 -8.9503250087 -42.7165828327 2.876225
1309 4 0.0456509 -5.3702000174 -42.7165828327 -5.7524499935
1311 4 0.0456517 -1.7900750261 -42.7165828327 -5.7524499928
1372 4 0.0456509 -5.3702000174 -42.7165828327 -2.876225
1374 4 0.0456517 -1.7900750261 -42.7165828327 -2.876225
1435 4 0.0456498 -5.3702000174 -42.7165828327 0.0
1437 4 0.0456505 -1.7900750261 -42.7165828327 0.0
1498 4 0.0456499 -5.3702000174 -42.7165828327 2.876225
1500 4 0.0456504 -1.7900750261 -42.7165828327 2.876225
1313 4 0.045651 1.7900750261 -42.7165828327 -5.7524499929
1376 4 0.0456512 1.7900750261 -42.7165828327 -2.876225
1378 4 0.0456506 5.3702000174 -42.7165828327 -2.876225
1439 4 0.0456502 1.7900750261 -42.7165828327 0.0
1441 4 0.0456498 5.3702000174 -42.7165828327 0.0
1315 4 0.0456505 5.3702000174 -42.7165828327 -5.7524499942
1502 4 0.04565 1.7900750261 -42.7165828327 2.876225
1504 4 0.0456497 5.3702000174 -42.7165828327 2.876225
1368 4 0.0456515 12.53045 -42.7165828327 -2.876225
1431 4 0.0456505 12.53045 -42.7165828327 0.0
1380 4 0.0456511 8.9503250087 -42.7165828327 -2.876225
1443 4 0.0456501 8.9503250087 -42.7165828327 0.0
1305 4 0.0456512 12.53045 -42.7165828327 -5.7524499933
1317 4 0.045651 8.9503250087 -42.7165828327 -5.7524499933
1494 4 0.0456502 12.53045 -42.7165828327 2.876225
1506 4 0.04565 8.9503250087 -42.7165828327 2.876225
1306 4 0.012264 -10.7403875044 -40.8180040929 -4.3143375
1308 4 0.012263 -7.1602499826 -40.8180040929 -4.3143375
1369 4 0.0122667 -10.7403875044 -40.8180040929 -1.4381125
1371 4 0.0122664 -7.1602499826 -40.8180040929 -1.4381125
1384 4 0.0221166 -8.9503250087 -38.4773539166 -2.876225
1447 4 0.0221186 -8.9503250087 -38.4773539166 0.0
1321 4 0.0221175 -8.9503250087 -38.4773539166 5.75245
1432 4 0.0122699 -10.7403875044 -40.8180040929 1.4381125
1434 4 0.01227 -7.1602499826 -40.8180040929 1.4381125
1495 4 0.0122671 -10.7403875044 -40.8180040929 4.3143375
1497 4 0.0122667 -7.1602499826 -40.8180040929 4.3143375
1510 4 0.0221194 -8.9503250087 -38.4773539166 2.876225
1310 4 0.0122596 -3.5801249913 -40.8180040929 -4.3143375
1373 4 0.0122632 -3.5801249913 -40.8180040929 -1.4381125
1386 4 0.0221196 -5.3702000174 -38.4773539166 -2.876225
1388 4 0.0221162 -1.7900750261 -38.4773539166 -2.876225
1449 4 0.0221227 -5.3702000174 -38.4773539166 0.0
1451 4 0.0221216 -1.7900750261 -38.4773539166 0.0
1312 4 0.0122604 0.0 -40.8180040929 -4.3143375
1375 4 0.0122633 0.0 -40.8180040929 -1.4381125
1323 4 0.022118 -5.3702000174 -38.4773539166 5.75245
1325 4 0.0221152 -1.7900750261 -38.4773539166 5.75245
1436 4 0.0122676 -3.5801249913 -40.8180040929 1.4381125
1499 4 0.0122641 -3.5801249913 -40.8180040929 4.3143375
1512 4 0.0221211 -5.3702000174 -38.4773539166 2.876225
1514 4 0.0221205 -1.7900750261 -38.4773539166 2.876225
1438 4 0.0122679 0.0 -40.8180040929 1.4381125
1501 4 0.012265 0.0 -40.8180040929 4.3143375
1314 4 0.0122646 3.5801249913 -40.8180040929 -4.3143375
1377 4 0.0122667 3.5801249913 -40.8180040929 -1.4381125
1390 4 0.0221155 1.7900750261 -38.4773539166 -2.876225
1392 4 0.0221121 5.3702000174 -38.4773539166 -2.876225
1453 4 0.0221189 1.7900750261 -38.4773539166 0.0
1455 4 0.022115 5.3702000174 -38.4773539166 0.0
1327 4 0.0221155 1.7900750261 -38.4773539166 5.75245
1329 4 0.0221112 5.3702000174 -38.4773539166 5.75245
1440 4 0.0122702 3.5801249913 -40.8180040929 1.4381125
1503 4 0.0122682 3.5801249913 -40.8180040929 4.3143375
1516 4 0.0221188 1.7900750261 -38.4773539166 2.876225
1518 4 0.0221141 5.3702000174 -38.4773539166 2.876225
1382 4 0.0221077 12.53045 -38.4773539166 -2.876225
1445 4 0.0221126 12.53045 -38.4773539166 0.0
1316 4 0.012266 7.1602499826 -40.8180040929 -4.3143375
1318 4 0.0122643 10.7403749739 -40.8180040929 -4.3143375
1379 4 0.0122681 7.1602499826 -40.8180040929 -1.4381125
1381 4 0.0122667 10.7403749739 -40.8180040929 -1.4381125
1394 4 0.0221091 8.9503250087 -38.4773539166 -2.876225
1457 4 0.0221141 8.9503250087 -38.4773539166 0.0
1319 4 0.0221095 12.53045 -38.4773539166 5.75245
1331 4 0.0221086 8.9503250087 -38.4773539166 5.75245
1508 4 0.0221143 12.53045 -38.4773539166 2.876225
1442 4 0.0122707 7.1602499826 -40.8180040929 1.4381125
1444 4 0.0122695 10.7403749739 -40.8180040929 1.4381125
1505 4 0.0122687 7.1602499826 -40.8180040929 4.3143375
1507 4 0.0122671 10.7403749739 -40.8180040929 4.3143375
1520 4 0.0221136 8.9503250087 -38.4773539166 2.876225
1320 4 0.0239759 -10.7403875044 -36.3203059508 -4.3143375
1322 4 0.0239707 -7.1602499826 -36.3203059508 -4.3143375
1334 4 0.0239347 -10.74037748 -31.8940314292 -4.3143375
1336 4 0.0239975 -7.1602499826 -31.8940314292 -4.3143375
1383 4 0.0239546 -10.7403875044 -36.3203059508 -1.4381125
1385 4 0.0239436 -7.1602499826 -36.3203059508 -1.4381125
1397 4 0.0240432 -10.74037748 -31.8940314292 -1.4381125
1398 4 0.0209559 -8.9503250087 -34.10716869 -2.876225
1399 4 0.0241487 -7.1602499826 -31.8940314292 -1.4381125
1461 4 0.0209947 -8.9503250087 -34.10716869 0.0
1335 4 0.0209521 -8.9503250087 -34.10716869 5.75245
1446 4 0.0239298 -10.7403875044 -36.3203059508 1.4381125
1448 4 0.023915 -7.1602499826 -36.3203059508 1.4381125
1460 4 0.0241706 -10.74037748 -31.8940314292 1.4381125
1462 4 0.0243062 -7.1602499826 -31.8940314292 1.4381125
1509 4 0.0239512 -10.7403875044 -36.3203059508 4.3143375
1511 4 0.0239422 -7.1602499826 -36.3203059508 4.3143375
1523 4 0.0240624 -10.74037748 -31.8940314292 4.3143375
1524 4 0.0209908 -8.9503250087 -34.10716869 2.876225
1525 4 0.0241555 -7.1602499826 -31.8940314292 4.3143375
1333 4 0.0209891 -12.5304497576 -34.10716869 5.75245
1522 4 0.0209944 -12.5304498099 -34.10716869 2.876225
1396 4 0.0210003 -12.5304498254 -34.10716869 -2.876225
1459 4 0.0210058 -12.5304498749 -34.10716869 0.0
1324 4 0.0239903 -3.5801249913 -36.3203059508 -4.3143375
1338 4 0.0239232 -3.5801249913 -31.8940314292 -4.3143375
1339 4 0.0209501 -1.7900750261 -34.10716869 5.75245
1387 4 0.0239619 -3.5801249913 -36.3203059508 -1.4381125
1400 4 0.020933 -5.3702000174 -34.10716869 -2.876225
1401 4 0.0240723 -3.5801249913 -31.8940314292 -1.4381125
1402 4 0.0209371 -1.7900750261 -34.10716869 -2.876225
1463 4 0.0209662 -5.3702000174 -34.10716869 0.0
1465 4 0.020951 -1.7900750261 -34.10716869 0.0
1326 4 0.0239916 0.0 -36.3203059508 -4.3143375
1340 4 0.0238884 0.0 -31.8940314292 -4.3143375
1389 4 0.0239673 0.0 -36.3203059508 -1.4381125
1403 4 0.0240258 0.0 -31.8940314292 -1.4381009951
1337 4 0.0209491 -5.3702000174 -34.10716869 5.75245
1450 4 0.0239287 -3.5801249913 -36.3203059508 1.4381125
1464 4 0.0242422 -3.5801249913 -31.8940314292 1.4381125
1513 4 0.0239572 -3.5801249913 -36.3203059508 4.3143375
1526 4 0.0209825 -5.3702000174 -34.10716869 2.876225
1527 4 0.0240932 -3.5801249913 -31.8940314292 4.3143375
1528 4 0.0209641 -1.7900750261 -34.10716869 2.876225
1452 4 0.0239322 0.0 -36.3203059508 1.4381125
1466 4 0.0242169 0.0 -31.8940314292 1.4381125
1515 4 0.0239567 0.0 -36.3203059508 4.3143375
1529 4 0.0240799 0.0 -31.8940314292 4.3143375
1328 4 0.0239692 3.5801249913 -36.3203059508 -4.3143375
1342 4 0.0239747 3.5801249913 -31.8940314292 -4.3143375
1391 4 0.0239514 3.5801249913 -36.3203059508 -1.4381125
1404 4 0.0209484 1.7900499652 -34.10716869 -2.876225
1405 4 0.024071 3.5801249913 -31.8940314292 -1.4381125
1406 4 0.0209861 5.3702000174 -34.10716869 -2.876225
1467 4 0.0209756 1.7900499652 -34.10716869 0.0
1469 4 0.0210098 5.3702000174 -34.10716869 0.0
1341 4 0.0209529 1.7900499652 -34.10716869 5.75245
1343 4 0.0209996 5.3702000174 -34.10716869 5.75245
1454 4 0.0239244 3.5801249913 -36.3203059508 1.4381125
1468 4 0.0242121 3.5800999304 -31.8940314292 1.4381125
1517 4 0.0239423 3.5801249913 -36.3203059508 4.3143375
1530 4 0.0209797 1.7900499652 -34.10716869 2.876225
1531 4 0.0241161 3.5800999304 -31.8940314292 4.3143375
1532 4 0.0210233 5.3702000174 -34.10716869 2.876225
1330 4 0.0239684 7.1602499826 -36.3203059508 -4.3143375
1332 4 0.0239835 10.7403749739 -36.3203059508 -4.3143375
1344 4 0.0239414 7.1602499826 -31.8940314292 -4.3143375
1345 4 0.0209958 8.9503250087 -34.10716869 5.75245
1346 4 0.0238481 10.7403749739 -31.8940314292 -4.3143375
1393 4 0.0239516 7.1602499826 -36.3203059508 -1.4381125
1395 4 0.0239644 10.7403749739 -36.3203059508 -1.4381125
1407 4 0.0240345 7.1602499826 -31.8940314292 -1.4381125
1408 4 0.0209857 8.9503250087 -34.10716869 -2.876225
1409 4 0.0239588 10.7403749739 -31.8940314292 -1.4381125
1471 4 0.0209858 8.9503250087 -34.10716869 0.0
1456 4 0.0239306 7.1602499826 -36.3203059508 1.4381125
1458 4 0.0239411 10.7403749739 -36.3203059508 1.4381125
1470 4 0.0241444 7.1602750435 -31.8940314292 1.4381125
1472 4 0.0240919 10.7403749739 -31.8940314292 1.4381125
1519 4 0.0239476 7.1602499826 -36.3203059508 4.3143375
1521 4 0.0239604 10.7403749739 -36.3203059508 4.3143375
1533 4 0.0240519 7.1602499826 -31.8940314292 4.3143375
1534 4 0.0209959 8.9503250087 -34.10716869 2.876225
1535 4 0.0239815 10.7403749739 -31.8940314292 4.3143375
1348 4 0.0225247 -8.9502999478 -29.7369834634 5.7524384951
1354 4 0.0118135 -10.7403624434 -27.3963527964 -4.3143375
1356 4 0.0114821 -7.1602249217 -27.3963527964 -4.3143375
1411 4 0.0225034 -8.9502999478 -29.7369834634 -2.8762134951
1417 4 0.0109059 -10.7403248521 -27.3963527964 -1.4380549755
1418 4 0.0461502 -12.5304026422 -25.497705774 -2.8762019902
1419 4 0.0100909 -7.1602249217 -27.3961577032 -1.4380089559
1420 4 0.0460081 -8.9503250087 -25.497705774 -2.8761904853
1474 4 0.0220891 -8.9502999478 -29.7369834634 1.1504900001e-05
1410 4 0.0223294 -12.5304448539 -29.7369834634 -2.8762134951
1473 4 0.0221604 -12.5304430919 -29.7369834634 1.1504900001e-05
1355 4 0.0453668 -12.5304116285 -25.4978033206 5.7524384951
1357 4 0.0458217 -8.9503250087 -25.497705774 5.7524154853
1481 4 0.0492439 -12.5302513934 -25.4974131342 2.30098e-05
1483 4 0.051262 -8.9504001914 -25.4970229478 4.60196e-05
1480 4 0.0101213 -10.7402847547 -27.3962552498 1.4381125
1482 4 0.0089792 -7.1601998608 -27.3960601566 1.4381125
1537 4 0.0221018 -8.9502999478 -29.7369834634 2.8762134951
1543 4 0.0108307 -10.7403198399 -27.3963527964 4.3142799755
1544 4 0.0486066 -12.5302796415 -25.4975106808 2.8762019902
1545 4 0.0101451 -7.1601998608 -27.3961577032 4.3142339559
1546 4 0.0512018 -8.9503751305 -25.4971204944 2.8761789804
1347 4 0.0224243 -12.5304456176 -29.7369834634 5.7524384951
1536 4 0.0222524 -12.5304440494 -29.7369834634 2.8762134951
1349 4 0.0224332 -5.3702000174 -29.7369834634 5.7524384951
1358 4 0.0116652 -3.5801500522 -27.3963527964 -4.3143375
1412 4 0.0225993 -5.3702000174 -29.7369834634 -2.8762134951
1413 4 0.0226222 -1.7900750261 -29.7369834634 -2.8762134951
1421 4 0.0103626 -3.5801751131 -27.3962552498 -1.4380204608
1422 4 0.0462145 -5.3701498956 -25.4976082274 -2.8761904853
1423 4 0.0451685 -1.7901251479 -25.497705774 -2.8761904853
1475 4 0.022222 -5.3702000174 -29.7369834634 1.1504900001e-05
1476 4 0.0223883 -1.7900750261 -29.7369834634 1.1504900001e-05
1361 4 0.0121273 0.0 -27.3963527964 -4.3143375
1424 4 0.0107995 -2.5060899999e-05 -27.3962552498 -1.4380204608
1350 4 0.0225048 -1.7900750261 -29.7369834634 5.7524384951
1359 4 0.0471876 -5.3701498956 -25.4976082274 5.7524039804
1360 4 0.0460401 -1.7901502088 -25.497705774 5.7524154853
1485 4 0.0513523 -5.3700747129 -25.4969254012 4.60196e-05
1486 4 0.049764 -1.7902253915 -25.4971204944 4.60196e-05
1484 4 0.00938786 -3.5801751131 -27.3961577032 1.4381240049
1538 4 0.0220698 -5.3702000174 -29.7369834634 2.8762134951
1539 4 0.0222704 -1.7900750261 -29.7369834634 2.8762134951
1547 4 0.0104436 -3.5801751131 -27.3962552498 4.3142454608
1548 4 0.0520874 -5.3700747129 -25.4968278546 2.8761789804
1549 4 0.0505402 -1.7902755133 -25.4970229478 2.8761789804
1487 4 0.00951452 -2.5060899999e-05 -27.3961577032 1.4381240049
1550 4 0.0105106 -2.5060899999e-05 -27.3962552498 4.3142454608
1352 4 0.0222606 5.3701749565 -29.7369834634 5.7524384951
1362 4 0.0115199 3.5801500522 -27.3963527964 -4.3143375
1414 4 0.0225778 1.7900499652 -29.7369834634 -2.8762134951
1415 4 0.022406 5.3701749565 -29.7369834634 -2.8762134951
1425 4 0.0105495 3.5801500522 -27.3962552498 -1.4380319657
1426 4 0.0457688 1.7901251479 -25.497705774 -2.8762019902
1427 4 0.0462688 5.3701498956 -25.4976082274 -2.8761904853
1477 4 0.0222956 1.7900499652 -29.7369834634 1.1504900001e-05
1478 4 0.02204 5.3701749565 -29.7369834634 1.1504900001e-05
1351 4 0.0225401 1.7900499652 -29.7369834634 5.7524384951
1363 4 0.0456106 1.7901251479 -25.497705774 5.7524269902
1364 4 0.0473059 5.3701749565 -25.4976082274 5.7524154853
1489 4 0.0495243 1.7902003306 -25.497218041 3.4514699999e-05
1490 4 0.0513814 5.3700747129 -25.4970229478 4.60196e-05
1488 4 0.00966796 3.5801751131 -27.3961577032 1.4381240049
1540 4 0.0222625 1.7900499652 -29.7369834634 2.8762134951
1541 4 0.0219107 5.3701749565 -29.7369834634 2.8762134951
1551 4 0.0105232 3.5801751131 -27.3962552498 4.3142569657
1552 4 0.0497113 1.7902253915 -25.497218041 2.8761904853
1553 4 0.0523012 5.3700997738 -25.4969254012 2.8761789804
1365 4 0.0117548 7.1601998608 -27.3963527964 -4.3143375
1366 4 0.0123927 10.7404000348 -27.3963527964 -4.3143375
1416 4 0.0225074 8.9503250087 -29.7369834634 -2.8762134951
1428 4 0.0110616 7.160149739 -27.3962552498 -1.4380549755
1429 4 0.0115615 10.7404250957 -27.3963527964 -1.4380664804
1430 4 0.0448062 8.9502999478 -25.4978033206 -2.8762134951
1479 4 0.0224326 8.9503250087 -29.7369834634 1.1504900001e-05
1353 4 0.0224147 8.9503250087 -29.7369834634 5.7524384951
1367 4 0.0457834 8.9502748869 -25.4978033206 5.7524384951
1493 4 0.0461888 8.9502247651 -25.497705774 2.30098e-05
1491 4 0.0103557 7.1600996172 -27.3962552498 1.4381240049
1492 4 0.0107119 10.7404250957 -27.3962552498 1.4381125
1542 4 0.0223389 8.9503250087 -29.7369834634 2.8762134951
1554 4 0.010899 7.160149739 -27.3962552498 4.3142799755
1555 4 0.0113975 10.7404000348 -27.3963527964 4.3142914804
1556 4 0.0471583 8.9501746433 -25.4976082274 2.8762134951
1080 3 0.0234116 -6.7515067036 -18.897702818 -1.4730183666
338 1 -0.038336 -8.8034430738 -19.2721842154 1.6552214679
339 1 -0.0267654 -10.0273998872 -19.8172746162 1.2149749645
340 1 -0.039102 -11.1677961417 -18.9816904406 1.1403081635
899 3 0.0606912 -6.8389191228 -19.0543626576 1.8500569494
900 3 0.0110988 -7.9739272838 -19.9522791106 1.7020118962
901 3 0.00158199 -12.0858771523 -19.4047500448 0.8070227154
902 3 -0.0312509 -10.0719807222 -20.8580968382 0.9371086197
502 1 -0.0252753 -4.8053774532 -19.4318679996 -0.8386496855
503 1 -0.0383446 -3.4950181749 -18.9496951558 -0.6484506787
504 1 -0.0385047 -5.7862109574 -18.5046875666 -1.2636752062
1078 3 0.0459938 -2.7469753708 -19.6441294012 -0.3093897708
1079 3 -0.0063535 -5.0359377332 -20.4746411536 -0.6750500075
332 1 -0.0725482 -3.4767487788 -19.8354182838 2.2212165283
333 1 0.009907 -3.0706870161 -18.4960059192 1.6083735151
334 1 -0.0262652 -4.9865426993 -19.9779338664 2.3418108901
335 1 -0.0528149 -5.7889425955 -18.9253085058 1.8896223005
336 1 -0.0448871 -0.8660545822 -19.482006952 0.9960367175
337 1 0.0027507 -1.7643625427 -18.3317374448 1.1860631508
895 3 0.0032352 -2.8979422324 -20.7539170694 1.9733549627
896 3 0.03299 -3.3636990589 -19.6225716026 3.2895385325
897 3 -0.0285287 -5.3868655159 -20.7821080368 2.908208622
898 3 -0.00164245 -1.1904679327 -20.3679251732 0.4991400865
499 1 -0.0252659 4.2576965446 -19.362024634 -0.7963806829
500 1 -0.0352067 5.5151272021 -18.7987905656 -0.4873130493
501 1 -0.0359129 3.2675654465 -18.5058581258 -1.3342922824
1075 3 0.0371472 6.2510154697 -19.4391839946 -0.0477568399
1076 3 0.0172806 2.3373549603 -18.9471589442 -1.6056928734
1077 3 -0.0040133 4.063374326 -20.4108456772 -0.614706807
328 1 -0.0315319 5.9870740709 -19.5081494408 2.0709625343
329 1 -0.0208998 4.6327078522 -19.904871463 2.1128978948
330 1 -0.0454142 3.6264876563 -18.9215041884 1.9616544794
331 1 -0.0302689 0.406989016 -19.413236599 1.5358581304
892 3 0.0524814 2.622623185 -19.2741351474 1.9218130107
893 3 -0.00566523 1.0473701937 -20.2806209662 1.4544954776
894 3 -0.0296357 4.3852314647 -20.9494980024 2.203303399
890 3 -0.0157092 6.7432867284 -20.264818417 2.1013469752
489 1 -0.0574417 -8.9565401119 -12.8750781874 -0.176715264
490 1 0.0490363 -7.6247287032 -12.4255834546 -0.0845495101
491 1 -0.0517057 -8.1487771831 -15.2095634186 -0.0737694188
492 1 -0.034484 -9.2030641852 -14.2682387286 -0.1613907372
493 1 -0.0545275 -9.8116681417 -13.234147222 -2.7189185023
494 1 0.036929 -8.8035182565 -12.2408301942 -2.7368431365
495 1 -0.0336964 -7.1146391446 -13.9840854828 -2.761406098
496 1 -0.0586587 -7.4444656495 -12.609361249 -2.8228307591
497 1 -0.0420944 -8.1095067528 -14.9889130094 -2.6751883774
498 1 -0.0362113 -9.4697372221 -14.609554282 -2.704226745
1068 3 0.0582638 -8.3395407539 -16.2709679732 -0.0854353874
1071 3 0.0139947 -10.8232714189 -12.9209250894 -2.6177904313
1072 3 0.0218039 -7.848322053 -16.0271990198 -2.5271433242
1073 3 0.0107477 -10.2106025844 -15.3824159938 -2.624612837
1074 3 0.0226318 -10.1968441503 -14.638818262 -0.252532555
316 1 -0.0481677 -7.2548548801 -14.4518214298 2.5997392432
317 1 -0.028821 -8.2917245567 -13.4869880092 2.5099319938
318 1 -0.0599532 -6.5589888698 -13.3435945072 0.0322712445
320 1 -0.0377509 -8.3479361554 -12.6182379896 5.088272123
321 1 -0.0414711 -6.8228550859 -14.7326580912 0.0114243657
322 1 -0.0664168 -8.7023474032 -17.9063367222 2.0113096278
323 1 0.027771 -9.8679048013 -17.1133804108 1.9721929678
324 1 -0.207537 -9.827381326 -15.6550587408 2.5043406124
325 1 -0.0594813 -11.098219565 -17.6180865192 1.5052896111
881 3 0.0224176 -9.3170160975 -13.7561190786 2.4770855043
882 3 0.0346137 -8.5079500019 -13.686763446 5.1335784192
884 3 0.0284949 -7.4526856247 -15.5046418836 2.5305832893
885 3 0.0371339 -7.786922848 -17.4605487602 2.335149553
886 3 0.0898391 -9.7342800825 -14.9380912308 1.682936772
887 3 0.0717856 -8.9812752202 -15.5305892792 3.1750417677
888 3 0.0417696 -10.7265087779 -15.393341213 3.0531933718
889 3 0.0151383 -11.9418972696 -16.959939609 1.4684969409
880 3 0.0410652 -6.2346757629 -12.7507062724 5.4098570878
482 1 -0.0372632 -0.1371332448 -14.5449784328 -0.1616553499
483 1 -0.0806064 -0.9627395344 -13.183910723 -2.7064702005
484 1 -0.0659993 -3.2116295177 -17.567654927 -0.7863944297
485 1 -0.0703877 -5.5032483355 -17.1254761892 -1.4273209038
486 1 0.0194759 -4.2098803474 -16.6412548668 -1.1549078816
487 1 -0.210333 -3.8990500047 -15.1194303602 -1.311328502
488 1 -0.0360766 -0.6488016401 -14.562244181 -2.6468287989
1057 3 0.0403298 -1.2484588553 -12.4699671576 -0.104579541
1058 3 0.0810489 -0.5980783785 -12.6243834254 -1.0567940944
1059 3 0.0328883 -1.9417435929 -12.8311822174 -2.4497728717
1060 3 0.0519224 -3.9692706465 -14.5513189618 -0.3762677545
1061 3 0.0554582 -2.2377880046 -17.204293842 -0.5543636065
1062 3 0.0451588 -6.2386855069 -16.424408775 -1.7685907525
1063 3 0.062423 -2.8904239624 -14.9798411756 -1.6782772875
1064 3 0.0655593 -4.580380693 -14.6262347506 -1.9981480222
1065 3 0.0130697 -1.3934862836 -15.3113045224 -2.4471037349
1066 3 0.0197752 -1.1197961947 -14.959746576 -0.2088944693
1067 3 0.0176482 -6.0956880115 -14.2809197866 -2.7224850213
305 1 -0.0474311 -5.9160765412 -14.038418939 2.7498781882
306 1 -0.0810895 -5.5894578315 -12.6596952946 2.7577475398
307 1 -0.0563979 -1.6693566708 -13.079048128 2.7498436735
308 1 -0.0629914 -2.5460120137 -13.7435355672 3.6376537967
309 1 -0.057576 -3.2506743999 -12.9309723892 4.557666135
310 1 -0.0116441 -3.9191739074 -17.2875010918 1.9616084598
311 1 -0.219169 -3.7703372223 -15.7770895374 1.3655050761
312 1 -0.0425812 -5.3338867733 -17.64617994 1.5873885775
313 1 0.0277504 -0.0390699431 -17.0543647178 2.0558220859
314 1 -0.0768954 -1.2166565732 -16.9851066318 1.3246856909
864 3 0.0253629 -3.499754685 -12.92004717 0.5931236146
865 3 0.0624677 -4.6030608075 -12.3116490258 2.9461172675
866 3 0.0465484 -5.5738950126 -12.963455407 0.1645315749
867 3 0.0281503 -1.2394369313 -13.6172127202 1.9261848727
868 3 0.0246897 -3.9651105371 -13.4630890922 5.1437832655
869 3 0.0935402 -1.1792907713 -12.3014066328 5.1402972808
870 3 0.0249451 -5.1786094369 -14.8044523888 2.8548719056
871 3 0.0399985 -6.0353664252 -15.4466016566 0.0848026179
872 3 0.0986894 -3.266938924 -15.764993759 0.4136126599
873 3 0.0660553 -3.2351617028 -15.1157235894 2.0308219382
874 3 0.0779049 -4.7458076939 -15.3394954898 1.2254444235
875 3 0.0476819 -5.9901064398 -16.870196737 1.2805528945
876 3 0.0112582 -2.7097098125 -14.816840807 3.5609736382
877 3 0.0762499 -0.8338763866 -15.1240150504 2.7868434319
878 3 0.026629 -3.8694781427 -17.070167267 3.0240169454
879 3 0.0426569 -1.7298286225 -16.0557801736 1.1557592442
472 1 0.0384712 1.327977091 -12.536201299 -0.1883237081
473 1 -0.0800104 0.1184879352 -13.1921046374 -0.5122441676
474 1 0.0320414 0.0819240821 -12.2341970254 -2.9112114009
475 1 -0.0337036 1.7283249685 -13.9938401428 -2.8937354578
476 1 -0.0579902 1.4444350933 -12.6066299442 -2.9402382636
477 1 -0.0412483 0.7028078796 -14.9633558002 -2.7695860819
478 1 -0.0509386 5.7599721951 -17.4131411126 -0.6559518735
479 1 -0.0709505 3.499253467 -17.118940567 -1.5083153998
480 1 0.0223014 4.7419733762 -16.5620470276 -1.1367646543
481 1 -0.187128 4.9959655977 -15.0307605008 -1.2766297236
1051 3 0.020224 2.7352719305 -14.329107807 -2.9309653142
1052 3 0.021517 0.9386560095 -16.01227439 -2.7069994259
1053 3 0.0543198 4.7436524565 -14.461771183 -0.3768660093
1054 3 0.0478076 2.7578267405 -16.4596230976 -1.9100204882
1055 3 0.0386277 6.041180554 -14.827570933 -1.4882623591
1056 3 0.0571629 4.3927747956 -14.61248068 -2.0790734888
290 1 -0.0564742 2.3027458574 -14.5135684276 2.7199194286
291 1 -0.0482599 3.6224027296 -14.033053876 2.6811594205
292 1 -0.0554009 1.2287108661 -13.577023521 2.7616937205
293 1 -0.0916483 3.8640649883 -12.6380399494 2.6449189855
294 1 -0.0601949 2.4154447247 -13.3752971522 0.0915444893
295 1 -0.0412941 2.1730556999 -12.2166386374 5.136592703
296 1 -0.0346842 0.8818178883 -12.785920595 5.0827152563
297 1 -0.0615802 5.9844677373 -12.5621486946 4.1092166379
298 1 -0.0785929 0.9756458979 -15.3829037268 0.0640477783
299 1 -0.0471037 2.2562077661 -14.784650429 0.0901178817
300 1 0.0373122 5.2842160695 -17.1671285874 1.8529676891
301 1 -0.203132 5.7445346807 -15.6856883732 1.750930731
302 1 -0.0576858 3.9251634625 -17.5426829974 1.8348704814
303 1 -0.245528 0.1221718875 -15.5853129218 2.5673989693
327 1 -0.076545 0.8032269059 -18.1980010562 2.1715153603
848 3 0.0302487 5.7687435101 -12.9249245 0.4509575653
849 3 0.0459182 0.2393817168 -13.881368913 2.978503561
850 3 0.0688137 4.8332702349 -12.2437565922 2.8013396059
851 3 0.051884 3.3339267097 -12.8828819154 0.2912120288
852 3 0.047841 3.0031729515 -12.8773217592 5.0026526572
853 3 0.0306083 0.7222050162 -13.8410821672 4.9071159676
854 3 0.0350845 5.0429798461 -12.9680400972 4.4068253911
855 3 0.0255256 2.1439349341 -15.5760459948 2.716882135
856 3 0.03168 4.4038015916 -14.740754459 2.7200920021
857 3 0.0572215 3.0938934095 -15.427482523 0.1975736477
858 3 0.0648628 5.7322297788 -15.2218542902 2.7364979895
859 3 0.0774297 5.1110201896 -15.0829479318 1.1024570425
860 3 0.0496631 3.1718077476 -16.7900134318 1.7020924305
861 3 0.132812 0.5652235386 -14.9677453972 1.7815682797
862 3 0.0743878 0.8444270255 -16.4347487146 0.2386691505
863 3 0.0730228 0.7356877804 -15.5608287252 3.4586145429
891 3 0.0393699 1.7522831889 -18.0986986174 2.6465641862
289 1 -0.050644 1.4339095153 -12.2029821134 2.5641660924
1050 3 0.0277161 6.6828147767 -16.9689138962 -0.3558350521
287 1 -0.0372779 8.1514085776 -12.899562384 3.0855336457
288 1 -0.046654 6.9566051092 -13.454114805 3.5921404123
326 1 -0.0555776 6.3087307224 -18.140253469 1.916026046
843 3 0.0172588 8.1425119581 -12.3449124164 0.2635197345
844 3 0.00530966 8.8769216326 -13.5699026192 2.6809408274
845 3 0.0213218 7.3166550595 -17.8187398754 1.7948104196
846 3 0.0617585 6.7602278968 -15.623551189 1.3816579557
847 3 0.00905641 6.8048112379 -14.5240059138 3.5897013735
470 1 -0.243351 -7.3101893473 -10.9033687616 -0.0836981475
471 1 -0.197034 -9.1318912292 -10.743782524 -2.4596440759
1043 3 0.0619202 -6.5440525734 -6.7586137276 -1.1721537267
1044 3 0.0325918 -7.8306039967 -6.2353737652 -2.5632572053
1045 3 0.0663092 -9.1036977167 -10.1268978256 -3.361271584
1046 3 0.0679024 -8.4190088678 -10.3011160532 -1.7707651786
1047 3 0.0513254 -10.1125843924 -10.642821793 -2.0071793687
1048 3 0.0905425 -6.8848056307 -10.5785385836 -1.0178154932
1049 3 0.0110853 -7.1622047328 -9.1136812914 -1.8566952767
1069 3 0.042221 -6.6989289354 -11.8383529226 -2.8213811417
1070 3 0.0427122 -9.7328766721 -12.1443566068 -0.2926041217
273 1 -0.264457 -6.7001318586 -10.2246395188 2.9599921769
274 1 0.0418 -6.6409380128 -11.7334903276 2.5955399547
275 1 -0.0695703 -8.8485526938 -8.191475735 1.8342147021
276 1 0.0246488 -10.0268510535 -7.4214428746 1.8884027811
278 1 -0.0658969 -11.2790815742 -7.9966751748 1.6205917189
279 1 -0.0539345 -6.8583914421 -10.6679888158 5.2715911996
280 1 -8.83699e-04 -7.9230787177 -9.7852896324 4.9386393936
281 1 -0.208242 -7.6033768164 -8.310482587 4.5391317411
282 1 -0.0359769 -9.3855075372 -11.7391480304 4.6949771165
283 1 -0.0851656 -9.1678536207 -10.3424758116 4.5604158061
284 1 -0.068886 -8.9576929133 -9.5738086036 1.5684285023
285 1 -0.0544999 -10.2035028315 -10.1956681786 1.3274008473
286 1 -0.0457116 -11.3517481599 -9.372765061 1.2959464507
315 1 -0.0634491 -7.9876857179 -12.1198724102 2.4547659983
319 1 -0.0368219 -7.0580766933 -12.073830415 5.2954063426
827 3 0.0562138 -6.5412457526 -8.091002737 4.5933198201
828 3 0.0590636 -8.1321367455 -7.5713719988 5.1370874137
829 3 0.0736833 -7.8913766792 -8.094904601 3.5146549108
830 3 0.0176213 -7.9115005819 -7.729104851 2.0579159777
832 3 0.0126707 -12.1379562086 -7.3656462194 1.6738248912
833 3 0.106269 -6.7023121569 -9.5170364824 2.1545456328
834 3 0.0659879 -8.7489356163 -11.3708120688 2.434551889
835 3 0.146183 -7.6552278185 -10.0620293366 3.3840742958
836 3 0.0923796 -6.5840497698 -10.6946190376 0.6882576327
837 3 0.0519596 -9.9000829969 -9.7070572592 4.0976196987
838 3 0.0293974 -8.0876285871 -10.1825969342 1.5568200582
839 3 0.0223746 -10.2650323531 -11.2659494738 1.1731661579
840 3 0.00950392 -12.2819972398 -9.818553023 1.0380296025
841 3 0.0488165 -8.144040673 -6.722423939 0.3461479263
842 3 0.096091 -8.1827597635 -10.2826797458 0.0774164721
883 3 0.0186204 -10.3276745788 -12.174303413 4.4418002871
814 3 0.0222434 -6.3260728652 -9.318626698 0.8341397647
458 1 -0.0668249 -1.9151038562 -11.664622428 -0.2302820784
459 1 -0.0729606 -3.6996153625 -9.444461812 -0.1651528395
460 1 0.0125396 -2.0765211131 -9.0545680518 -0.0328234797
461 1 -0.227036 -1.8227043179 -7.6226815104 -0.9237399259
462 1 -0.0778064 -1.5773581069 -10.3787631468 -0.7022245813
463 1 -0.127922 -3.4908580655 -7.9899444594 -2.0212498614
464 1 -0.0830304 -5.8138280692 -7.4805561142 -1.4753308515
465 1 0.0248991 -4.497429114 -7.05261918 -1.6298071438
466 1 -0.211962 -0.2838397534 -10.731589199 -2.7658124747
467 1 -0.0652579 -5.1844736875 -9.780997582 -2.0544990224
468 1 -0.00968056 -3.8365481201 -9.4113935146 -1.7788071037
469 1 -0.0393781 -6.137915628 -8.8326495368 -1.7869755827
1034 3 0.0716015 -1.9363554994 -6.7182294352 -0.3059958253
1035 3 0.0675236 -0.8341269956 -7.635947848 -1.3591198566
1036 3 0.0431438 -0.7168169227 -10.0231082432 -1.21031548
1038 3 0.155359 -2.5034586055 -7.622779057 -1.7938785227
1039 3 0.0718993 -0.3864140171 -10.1688428636 -3.6766669126
1040 3 0.0826335 -1.286626606 -10.7806551388 -2.3994849538
1041 3 0.0263664 -5.4184422499 -10.805236882 -2.2810420083
1042 3 0.0364057 -3.1545909093 -10.1927417806 -2.1369086211
256 1 0.0124671 -4.1973749583 -7.0234527466 2.191338303
257 1 -0.0836983 -5.454254276 -7.595466009 1.6451891951
258 1 0.0149493 -0.1835961534 -7.2829267026 2.3462057619
260 1 -0.0695373 -1.5497409951 -7.6376061402 1.8288994383
261 1 -0.0541926 -3.2671143503 -11.9332657644 0.2019455097
262 1 -0.0406749 -4.1214404313 -10.8567414868 0.1251848169
263 1 -0.0900483 -1.3307839118 -11.7096889572 3.0060117769
264 1 0.0150688 -2.0403081126 -10.901320283 3.9438221955
265 1 -0.243544 -1.718425913 -9.3471103052 4.0576286663
266 1 -0.0913874 -3.0853476426 -11.5145957572 4.6548940449
267 1 -0.20925 -3.3490384324 -10.3242345974 2.1678568021
268 1 -0.0844704 -3.0310907941 -7.7211060298 2.4383715158
269 1 -0.00997598 -4.6061683591 -9.7940688264 2.2367941629
270 1 -0.0877383 -5.5010680372 -8.9252212602 1.3889405574
271 1 -0.077512 -0.4094700451 -9.8206015016 1.3339356305
272 1 -0.0199128 -1.4304260502 -8.9092236178 0.9890187285
304 1 -0.0597501 -0.1974297702 -11.8952225904 5.2243290704
808 3 0.0263362 -4.0783607442 -7.1444105306 0.2352867099
809 3 0.0511669 -6.1915960758 -6.9159563934 1.318346491
810 3 0.0639891 -2.0192820175 -6.7764647554 1.3652404634
811 3 0.0479958 -5.1095415965 -11.0429579462 0.4408562631
812 3 0.114256 -4.2322096093 -8.6200954954 0.3133014368
813 3 0.0954256 -5.9636922512 -9.9299512402 3.6985722422
815 3 0.0166646 -5.8626216415 -10.274583378 5.2561746336
816 3 0.0690246 -0.5720902252 -11.2649740078 2.4636247713
817 3 0.105445 -0.6932095549 -9.1165101428 3.7662210542
818 3 0.0440652 -1.8991651238 -8.9244408874 5.054907913
819 3 0.140135 -2.3249247539 -8.783095864 3.4450617707
820 3 0.0418016 -3.7136995883 -10.8768360864 5.2479946497