# LAMMPS data file written by Ovito Basic 3.0.0-dev791
1507 atoms
6 atom types
-13.4139 13.4139 xlo xhi
-42.1392 42.1392 ylo yhi
-7.66085 7.66085 zlo zhi

Atoms  # charge

449 3 -0.0114901 -11.4976412188 -37.0835747635 -5.7456681434
451 3 -0.0114901 -7.6650780492 -37.0835916192 -5.7456681434
452 3 -0.0114897 -11.4976412188 -37.0835747635 -1.9152737868
453 3 -0.0114897 -9.5813609754 -37.0835747635 -3.8304709651
454 3 -0.0114904 -7.6650780492 -37.0835916192 -1.9152737868
455 3 -0.0114901 -9.5813609754 -37.0835916192 -6.12868e-05
457 3 -0.0114898 -3.8325121968 -37.0836084749 -5.7456681434
459 3 -0.0114905 -5.748795123 -37.0835916192 -3.8304709651
460 3 -0.0114909 -3.8325121968 -37.083600047 -1.9152737868
461 3 -0.0114897 -1.9162560984 -37.083600047 -3.8304709651
464 3 -0.0114913 -5.748795123 -37.0836084749 -6.12868e-05
465 3 -0.0114908 -1.9162560984 -37.0836169027 -6.12868e-05
462 3 -0.0114886 2.6827800001e-05 -37.0836169027 -5.7456681434
463 3 -0.0114899 2.6827800001e-05 -37.0836084749 -1.9152737868
467 3 -0.011489 3.8325658524 -37.0836253306 -5.7456681434
469 3 -0.0114891 1.9162829262 -37.0836084749 -3.8304709651
470 3 -0.0114895 3.8325658524 -37.0836169027 -1.9152584651
471 3 -0.0114901 5.7488487786 -37.0836084749 -3.8304709651
472 3 -0.0114895 1.9162829262 -37.0836253306 -6.12868e-05
473 3 -0.0114893 5.7488487786 -37.0836253306 -6.12868e-05
475 3 -0.0114906 13.4139 -37.0835663357 -3.8304709651
476 3 -0.011491 7.665104877 -37.0836084749 -5.7456681434
478 3 -0.0114916 11.4976439016 -37.0835831914 -5.7456681434
479 3 -0.0114907 7.665104877 -37.083600047 -1.9152584651
480 3 -0.0114917 9.5813878032 -37.0835831914 -3.8304709651
481 3 -0.0114914 11.4976439016 -37.0835747635 -1.9152737868
482 3 -0.0114906 13.4139 -37.0835831914 -6.12868e-05
483 3 -0.0114913 9.5813878032 -37.083600047 -6.12868e-05
484 3 5.65168e-04 -9.5813609754 -35.2708222301 -5.7456987868
486 3 -0.00455425 -11.4976304877 -33.4780773888 -5.7457294302
487 3 -0.00455566 -7.6650512214 -33.4781616672 -5.7457294302
488 3 -0.00389239 -9.5813341476 -31.6879198944 -5.7457753953
489 3 5.64967e-04 -11.4976358533 -35.2707969466 -3.8304862868
490 3 5.63248e-04 -7.6650780492 -35.2708306579 -3.8304862868
491 3 5.62705e-04 -9.5813609754 -35.2708222301 -1.9152737868
492 3 -0.0038966 -11.4976117082 -31.687835616 -3.8305475736
493 3 -0.00455549 -11.4976278049 -33.4780773888 -1.9152891085
494 3 -0.00455611 -9.5813341476 -33.4780773888 -3.8305169302
495 3 -0.0038863 -7.6650512214 -31.6879198944 -3.8305475736
496 3 -0.00454828 -7.6650512214 -33.4781616672 -1.9152891085
497 3 -0.00388594 -9.5813341476 -31.6879198944 -1.9153044302
501 3 5.63846e-04 -11.4976331705 -35.2708222301 -6.12868e-05
502 3 5.63414e-04 -7.6650780492 -35.2708475136 -6.12868e-05
503 3 -0.00455225 -9.5813341476 -33.4781616672 -7.66085e-05
725 3 -0.00389232 -11.4976063427 -31.6879198944 -7.66085e-05
726 3 -0.0038967 -7.6650243936 -31.6879198944 -7.66085e-05
553 3 -0.00390267 -13.4138982345 -31.687835616 -1.9153044302
504 3 5.65152e-04 -5.748795123 -35.2708475136 -5.7456834651
505 3 5.66548e-04 -1.9162292706 -35.2708475136 -5.7456834651
506 3 -0.00455795 -3.832485369 -33.4781616672 -5.7457141085
507 3 -0.00389022 -5.7487682952 -31.6879198944 -5.7457753953
508 3 -0.00388712 -1.9162024428 -31.6879198944 -5.7457753953
509 3 5.6616e-04 -3.8325121968 -35.2708306579 -3.8304862868
510 3 5.64662e-04 -5.748795123 -35.2708390858 -1.9152737868
511 3 5.67646e-04 -1.9162292706 -35.2708390858 -1.9152737868
512 3 -0.00454976 -5.7487682952 -33.4780773888 -3.8305016085
513 3 -0.00389944 -3.832485369 -31.6879198944 -3.8305475736
514 3 -0.00455104 -3.832485369 -33.4781616672 -1.9152891085
515 3 -0.00390425 -5.7487682952 -31.6879198944 -1.9153044302
516 3 -0.00455896 -1.9162292706 -33.4780773888 -3.8305016085
517 3 -0.00390034 -1.9162024428 -31.6879198944 -1.9153044302
522 3 5.67596e-04 -3.8325121968 -35.2708643693 -6.12868e-05
523 3 -0.00454694 -5.7487682952 -33.4781616672 -7.66085e-05
524 3 -0.00455637 -1.9162292706 -33.4781616672 -6.12868e-05
743 3 -0.00390869 -3.832485369 -31.6879198944 -7.66085e-05
519 3 5.67213e-04 2.6827800001e-05 -35.2708390858 -3.8304862868
521 3 -0.00455878 5.3655599999e-05 -33.4781616672 -1.9152891085
525 3 5.66451e-04 2.6827800001e-05 -35.2708643693 -6.12868e-05
526 3 -0.00456697 5.3655599999e-05 -33.4781616672 -5.7457141085
527 3 -0.00389085 8.04834e-05 -31.6879198944 -3.8305322519
528 3 5.67452e-04 1.916309754 -35.2708559414 -5.7456834651
529 3 5.69574e-04 5.7488487786 -35.2708559414 -5.7456834651
531 3 -0.00456725 3.8325926802 -33.4781616672 -5.7457141085
532 3 -0.00388009 1.9163365818 -31.6879198944 -5.7457600736
533 3 -0.00389358 5.7488487786 -31.6879198944 -5.7457600736
534 3 5.68313e-04 3.8325658524 -35.2708475136 -3.8304862868
535 3 5.66477e-04 1.916309754 -35.2708475136 -1.9152737868
536 3 5.67801e-04 5.7488487786 -35.2708475136 -1.9152737868
537 3 -0.00456326 1.916309754 -33.4780773888 -3.8305016085
538 3 -0.00388736 3.8325926802 -31.6879198944 -3.8305322519
539 3 -0.00456228 3.8325926802 -33.4781616672 -1.9152891085
540 3 -0.00388564 1.9163365818 -31.6879198944 -1.9152891085
541 3 -0.00456185 5.7488487786 -33.4780773888 -3.8305016085
542 3 -0.00388875 5.7488487786 -31.6879198944 -1.9153044302
547 3 -0.00455944 1.916309754 -33.4781616672 -6.12868e-05
548 3 -0.00456553 5.7488487786 -33.4781616672 -6.12868e-05
762 3 5.65379e-04 3.8325658524 -35.2708727971 -6.12868e-05
546 3 -0.0038757 3.8325926802 -31.6879198944 -7.66085e-05
763 3 -0.00389118 8.04834e-05 -31.6879198944 -6.12868e-05
549 3 5.6615e-04 13.4139 -35.2708053744 -5.7456987868
550 3 -0.00390418 13.4139 -31.687835616 -5.7457753953
551 3 5.66155e-04 13.4139 -35.2707969466 -1.9152737868
552 3 -0.0045513 13.4139 -33.4780773888 -3.8305016085
555 3 5.67516e-04 9.5813609754 -35.2708222301 -5.7456834651
556 3 -0.0045576 7.665104877 -33.4780773888 -5.7457141085
557 3 -0.00454992 11.4976170738 -33.4780773888 -5.7457294302
558 3 -0.00390042 9.5813341476 -31.687835616 -5.7457753953
559 3 5.68572e-04 7.665104877 -35.2708306579 -3.8304862868
560 3 5.67262e-04 11.4976170738 -35.2707969466 -3.8304862868
561 3 5.68517e-04 9.5813609754 -35.2708222301 -1.9152737868
562 3 -0.00389801 7.6650780492 -31.687835616 -3.8305322519
563 3 -0.00455949 7.665104877 -33.4780773888 -1.9152891085
564 3 -0.0045527 9.5813609754 -33.4780773888 -3.8305016085
565 3 -0.00390544 11.4976170738 -31.687835616 -3.8305322519
566 3 -0.00454937 11.4976170738 -33.4780773888 -1.9152891085
567 3 -0.00390502 9.5813341476 -31.687835616 -1.9153044302
573 3 5.677e-04 11.4976439016 -35.2708222301 -6.12868e-05
574 3 -0.00455359 9.5813609754 -33.4780773888 -6.12868e-05
575 3 5.68549e-04 7.665104877 -35.2708559414 -6.12868e-05
571 3 -0.00455242 13.4139 -33.4780773888 -6.12868e-05
572 3 -0.00389813 7.6650780492 -31.6879198944 -7.66085e-05
786 3 -0.00390458 11.4976170738 -31.687835616 -7.66085e-05
576 3 -0.00383728 -11.4975848804 -29.8978466784 -5.7458366821
577 3 -0.00384343 -7.6650243936 -29.8978466784 -5.7458520038
578 3 -0.0039016 -9.5812536642 -28.1077734624 -5.7458979689
579 3 -0.00454436 -11.4975285421 -26.317615968 -5.7459286123
580 3 -0.00461335 -7.664970738 -26.317615968 -5.745943934
581 3 -0.00389613 -11.4975526871 -28.1077734624 -3.8306241821
582 3 -0.00383601 -11.4975795149 -29.8978466784 -1.9153197519
583 3 -0.00383983 -9.581280492 -29.8978466784 -3.8305935387
584 3 -0.00390932 -7.6649975658 -28.1078577408 -3.8306395038
585 3 -0.0038614 -7.6650243936 -29.8978466784 -1.9153350736
586 3 -0.0039095 -9.5812536642 -28.1077734624 -1.9153503953
587 3 -0.00457804 -11.4975178109 -26.317615968 -1.9153963604
588 3 -0.00460463 -9.5812268364 -26.317615968 -3.8306701472
589 3 -0.004607 -7.664970738 -26.317615968 -1.9153963604
590 3 4.81215e-04 -9.5812268364 -24.5249301216 -5.7459132906
591 3 5.1793e-04 -11.4975231765 -24.5250144 -3.8306854689
592 3 5.64453e-04 -13.413812639 -24.5250144 -1.9154729689
593 3 7.99409e-04 -7.6649439102 -24.5249301216 -3.8306854689
594 3 6.6066e-04 -9.5812268364 -24.5249301216 -1.9154729689
595 3 -0.00389056 -13.4138606329 -28.1077734624 -1.9153503953
599 3 9.11807e-04 -7.6649439102 -24.5247615648 -2.757906e-04
824 3 5.43733e-04 -11.4974990315 -24.5248458432 -2.757906e-04
596 3 -0.0045369 -13.4138451669 -26.3177002464 -3.8306548255
653 3 5.73022e-04 -13.4138265688 -24.5250144 -5.7458979689
804 3 -0.00390217 -11.4975312248 -28.1077734624 -1.225736e-04
811 3 -0.00459736 -9.5812000086 -26.3175316896 -1.685387e-04
822 3 -0.00455565 -13.4138242952 -26.3175316896 -1.685387e-04
597 3 -0.00389077 -13.4138724725 -28.1077734624 -5.7458826472
652 3 -0.00384479 -13.4138887511 -29.8978466784 -3.830578217
806 3 -0.00384983 -9.581280492 -29.8978466784 -9.19302e-05
897 3 -0.00384118 -13.4138786541 -29.8978466784 -9.19302e-05
807 3 -0.00391206 -7.664970738 -28.1077734624 -1.072519e-04
601 3 -0.00383948 -3.8324585412 -29.8978466784 -5.7458366821
602 3 -0.00390425 -5.7487146396 -28.1077734624 -5.7459132906
603 3 -0.00390716 -1.916175615 -28.1077734624 -5.7458979689
604 3 -0.00462311 -3.8324317134 -26.317615968 -5.745943934
605 3 -0.00385616 -5.7487414674 -29.8978466784 -3.8305935387
606 3 -0.00391055 -3.8324585412 -28.1078577408 -3.8306395038
607 3 -0.00383362 -3.8324585412 -29.8978466784 -1.9153197519
608 3 -0.00390812 -5.7487146396 -28.1078577408 -1.9153503953
609 3 -0.00382921 -1.916175615 -29.8978466784 -3.830578217
610 3 -0.003932 -1.916175615 -28.1078577408 -1.9153503953
611 3 -0.00460244 -5.7487146396 -26.3177002464 -3.8306701472
612 3 -0.00442684 -3.8324317134 -26.3177002464 -1.9154116821
613 3 -0.00457185 -1.9161487872 -26.3177002464 -3.8306701472
614 3 7.4728e-04 -5.7486878118 -24.5248458432 -5.7459132906
615 3 8.1815e-04 -1.9161487872 -24.5249301216 -5.7458979689
616 3 7.57064e-04 -3.8324317134 -24.5250144 -3.8307007906
617 3 0.00102586 -5.7486878118 -24.5249301216 -1.9154882906
618 3 1.0724e-04 -1.9161487872 -24.5250144 -1.9154882906
620 3 -2.13799e-04 -3.8324317134 -24.5248458432 -2.757906e-04
622 3 -0.0043509 -1.9161487872 -26.317615968 -1.53217e-04
624 3 -0.00443494 -5.7487146396 -26.3175316896 -1.53217e-04
837 3 -0.00384271 -5.7487414674 -29.8978466784 -9.19302e-05
841 3 -0.00382272 -1.916175615 -29.8978466784 -7.66085e-05
838 3 -0.00392979 -3.8324585412 -28.1077734624 -1.072519e-04
625 3 -0.00382858 1.073112e-04 -29.8978466784 -5.7458366821
626 3 -0.00390513 1.34139e-04 -28.1077734624 -3.8306241821
627 3 -0.00455914 1.34139e-04 -26.317615968 -1.9153810387
628 3 7.86036e-04 1.073112e-04 -24.5250144 -3.8306854689
629 3 -0.00470348 1.34139e-04 -26.317615968 -5.7459132906
630 3 -0.00383372 1.073112e-04 -29.8978466784 -1.9153197519
631 3 -0.00383478 3.832619508 -29.8977624 -5.7458366821
632 3 -0.00389867 1.9163902374 -28.1077734624 -5.7458826472
633 3 -0.00389444 5.7488487786 -28.107689184 -5.7458979689
634 3 -0.0047118 3.832619508 -26.3174474112 -5.7459132906
635 3 -0.00383898 1.9163634096 -29.8978466784 -3.830578217
636 3 -0.00389995 3.832619508 -28.107689184 -3.8306088604
637 3 -0.0038418 3.832619508 -29.8978466784 -1.9153044302
638 3 -0.00391491 1.9163902374 -28.1077734624 -1.9153350736
639 3 -0.00383535 5.7488487786 -29.8977624 -3.830578217
640 3 -0.00389792 5.7488487786 -28.107689184 -1.9153197519
641 3 -0.00468004 1.9163902374 -26.317615968 -3.8306395038
642 3 -0.00469065 3.832619508 -26.3174474112 -1.9153503953
643 3 -0.00466187 5.7488487786 -26.3174474112 -3.8306395038
644 3 0.00111758 1.9163634096 -24.5247615648 -5.7458826472
645 3 7.91643e-04 5.7488487786 -24.5246772864 -5.7458979689
646 3 0.00108471 3.8325926802 -24.5247615648 -3.8306548255
647 3 0.00106626 1.9163634096 -24.5248458432 -1.9154423255
648 3 7.26175e-04 5.7488487786 -24.5246772864 -1.9154270038
650 3 5.23693e-04 1.073112e-04 -24.5248458432 -2.451472e-04
889 3 0.00117137 3.8325926802 -24.524593008 -2.145038e-04
651 3 -0.00382764 5.7488487786 -29.8978466784 -6.12868e-05
860 3 -0.00384715 1.9163634096 -29.8978466784 -6.12868e-05
869 3 -0.00394113 1.34139e-04 -28.1077734624 -9.19302e-05
873 3 -0.00391979 3.832619508 -28.107689184 -7.66085e-05
877 3 -0.00465421 1.9164170652 -26.3174474112 -1.225736e-04
879 3 -0.00469026 5.7488219508 -26.3173631328 -1.072519e-04
654 3 -0.00383462 7.6650780492 -29.8977624 -5.7458366821
655 3 -0.00384622 11.4976170738 -29.8977624 -5.7458366821
656 3 -0.0038924 9.5813073198 -28.107689184 -5.7458979689
657 3 -0.00460898 7.6650512214 -26.3174474112 -5.7459286123
658 3 -0.00454279 11.4976170738 -26.317615968 -5.7459132906
659 3 -0.00389055 7.6650512214 -28.107689184 -3.8306088604
660 3 -0.0038282 7.6650780492 -29.8977624 -1.9153044302
661 3 -0.00383841 9.5813341476 -29.8977624 -3.830578217
662 3 -0.00389095 11.4976170738 -28.1077734624 -3.8306241821
663 3 -0.0038503 11.4976170738 -29.8977624 -1.9153197519
664 3 -0.00388693 9.5813341476 -28.1077734624 -1.9153350736
665 3 -0.00459744 7.6650780492 -26.3174474112 -1.9153503953
666 3 -0.00455155 9.5813341476 -26.3175316896 -3.8306548255
667 3 -0.00453564 11.4976439016 -26.317615968 -1.9153810387
668 3 5.10214e-04 9.5813878032 -24.5248458432 -5.7458979689
669 3 4.88795e-04 7.665104877 -24.5248458432 -3.8306701472
670 3 5.7405e-04 11.4976707294 -24.5250144 -3.8306701472
671 3 5.23632e-04 9.5813878032 -24.5248458432 -1.9154423255
922 3 5.62686e-04 11.4976975572 -24.5248458432 -2.451472e-04
672 3 5.99739e-04 7.665104877 -24.524593008 -2.145038e-04
904 3 -0.00384112 9.5813341476 -29.8977624 -7.66085e-05
905 3 -0.00388649 7.6650512214 -28.107689184 -7.66085e-05
907 3 -0.00389153 11.4976170738 -28.1077734624 -1.072519e-04
911 3 -0.00455891 9.5813341476 -26.3174474112 -1.378953e-04
673 3 -0.0115224 -11.4975500043 -22.712186016 -5.7458520038
674 3 -0.0112636 -7.664970738 -22.7121017376 -5.7458366821
675 3 -0.011467 -11.4975392732 -22.7122702944 -1.9155802208
676 3 -0.0113238 -9.5812536642 -22.7122702944 -3.8307007906
677 3 -0.0119802 -7.6649439102 -22.7121017376 -1.9155802208
678 3 -0.0114232 -9.5812536642 -22.7120174592 -4.136859e-04
679 3 -0.0115037 -13.4138070186 -22.7122702944 -3.8307007906
702 3 -0.0115086 -13.4137881219 -22.7121017376 -3.983642e-04
682 3 -0.0115993 -3.8323780578 -22.712186016 -5.7458213604
683 3 -0.0121373 -5.748660984 -22.712186016 -3.8307007906
684 3 -0.0117419 -3.8323780578 -22.7122702944 -1.9155802208
685 3 -0.0114214 -1.916175615 -22.7122702944 -3.8306854689
686 3 -0.0122365 -5.7486341562 -22.7120174592 -4.290076e-04
687 3 -0.0100552 -1.9161487872 -22.712186016 -4.136859e-04
688 3 -0.0110054 2.6827800001e-05 -22.712186016 -1.9155648991
689 3 -0.0122634 5.3655599999e-05 -22.7121017376 -5.745790717
690 3 -0.0119554 3.8325390246 -22.7119331808 -5.745790717
691 3 -0.0123872 1.9162829262 -22.7121017376 -3.8306701472
692 3 -0.0122625 3.8325390246 -22.7119331808 -1.9155342557
693 3 -0.0113434 5.7488756064 -22.7120174592 -3.8306548255
695 3 -0.0126422 1.9162560984 -22.7118489024 -3.983642e-04
943 3 -0.0114879 5.7488756064 -22.7116803456 -3.830425e-04
696 3 -0.0112824 7.6651853604 -22.7119331808 -5.7458213604
697 3 -0.0115096 11.4977512128 -22.712186016 -5.7458366821
698 3 -0.0113824 7.6652121882 -22.7120174592 -1.9155342557
699 3 -0.0115362 9.5814682866 -22.712186016 -3.8306854689
700 3 -0.0115032 11.4977512128 -22.712186016 -1.9155495774
701 3 -0.0114302 9.5815219422 -22.7119331808 -3.830425e-04
1125 2 -0.509458 -8.6485047138 -12.6352705632 -2.3716919081
1440 4 0.0939164 -9.5321319624 -12.6481651584 -1.6797792578
1441 4 0.115519 -8.8876745508 -13.109083728 -3.3587924306
1445 4 0.111456 -7.2653170014 -13.2501657696 -5.3619514886
1446 4 0.124982 -7.7437639866 -13.0961048544 -1.8967958166
977 6 0.743556 -1.4349117108 -13.8190449696 -0.6424542027
1093 2 -0.523991 -2.6440674846 -13.125939408 -2.077162869
1094 2 -0.525445 -1.3401290934 -15.7823102976 -0.9362171568
1128 2 -0.525248 -6.2243983614 -12.83981424 -5.4143976677
1337 4 0.125592 -2.1695910138 -13.3807130112 -3.0591459437
1338 4 0.114147 -0.8814005412 -15.9388152864 -1.946621985
1350 4 0.135376 -0.6986227398 -16.200836832 -0.119662477
1352 4 0.128536 -3.6387349974 -13.6252046496 -1.957500392
1353 4 0.110017 -2.3878351668 -16.1758061472 -0.8855789383
1448 4 0.113494 -5.7639260022 -12.9886498944 -6.4252422287
1451 4 0.137297 -5.5738510392 -13.243507776 -4.5973067284
1455 4 0.120102 -2.7605269644 -12.222053568 -6.7436700555
974 6 0.509621 1.165533771 -12.8601253344 -1.8947580305
1012 5 -0.607645 0.0131187942 -13.2108920352 -0.877014108
1084 2 -0.510103 1.724222706 -14.4121963488 -2.9894322087
1086 2 -0.50988 2.7783674514 -12.2075576832 -0.9478463271
1279 4 0.121155 2.425098981 -15.0747931296 -7.4241006238
1282 4 0.126117 3.0298780764 -12.5359063296 -5.9304938105
1290 4 0.102369 0.641586837 -14.6124418272 -7.2082546429
1316 4 0.108926 2.5483995498 -14.0586484608 -3.6637708691
1320 4 0.119024 0.83032041 -14.744084688 -3.5781838529
1321 4 0.112798 2.0785374606 -15.2098914048 -2.287070159
1325 4 0.128214 3.165277983 -13.0505945184 -0.3191203676
989 6 0.530354 -8.2157186442 -10.7410292448 -2.7228959155
1022 5 -0.607489 -6.9863078814 -10.5876425568 -3.696206908
1124 2 -0.508571 -9.8457221166 -9.91746072 -3.4828062704
1126 2 -0.527553 -7.5515696274 -10.1836119072 -6.5698331116
1127 2 -0.508919 -7.8772322916 -9.9343164 -0.9433417473
1143 2 -0.510457 -9.3452763354 -6.6011899584 -0.796421966
1145 2 -0.513206 -6.8552540784 -6.8203980768 -3.8696025869
1436 4 0.0961047 -10.666867419 -10.0419399168 -2.7286262313
1437 4 0.111393 -10.0755558792 -10.4583594912 -4.4373941455
1438 4 0.127981 -9.6135543354 -8.8373487456 -3.6665594185
1439 4 0.107388 -8.5432592544 -10.6908835968 -6.4583248433
1442 4 0.135149 -7.6320798552 -9.0778792992 -6.4205369346
1443 4 0.102749 -8.8532544834 -9.9476323872 -0.389784048
1447 4 0.15087 -7.5151911306 -8.8885900128 -1.1118651256
1449 4 0.12981 -7.1051013798 -10.561769088 -0.4270770658
1493 4 0.147794 -7.8818198454 -7.263955296 -3.8223351424
1502 4 0.132643 -8.4927693348 -7.0509837792 -0.2246008003
1503 4 0.0952286 -10.2927000924 -6.6041397024 -0.1950912061
1504 4 0.13886 -9.4841102004 -7.101297984 -1.7896971336
1444 4 0.11254 -7.0631158728 -10.4334130848 -7.5463357674
1344 4 0.161543 -2.723289978 -12.0188583456 -1.9378579726
990 6 0.758749 -6.3511060608 -10.8773074176 -5.1243885301
991 6 0.504596 -3.7417269216 -9.8974867392 -6.3315086646
1023 5 -0.612208 -4.905060813 -10.2612323136 -5.3339280993
1096 2 -0.53107 -3.3040045368 -7.0961570016 -0.5371328369
1130 2 -0.516786 -3.1414817244 -11.4307636704 -7.4386393849
1131 2 -0.519415 -2.1597183834 -9.2228381472 -5.358458141
1322 4 0.129929 -0.1616911506 -11.9832085824 -3.8837598377
1346 4 0.13415 -2.8270867362 -7.3299452832 -1.5232527706
1348 4 0.154006 -1.478614197 -9.885434928 -0.4376796822
1364 4 0.138477 -4.287753135 -7.6185988032 -0.423798222
1453 4 0.139534 -4.7935108206 -7.6957978176 -7.056012103
1457 4 0.13308 -2.4779229192 -8.321649216 -4.7740425379
1458 4 0.138223 -1.7915336562 -10.0423613088 -4.6878426537
1459 4 0.126452 -1.3972454796 -8.9590467552 -6.1477447913
1494 4 0.151221 -6.3963913872 -6.9489226368 -4.883791875
1495 4 0.179271 -6.1921781736 -7.2387560544 -3.0706678621
1487 4 0.137602 -3.4175666142 -6.1738984704 -5.1559512321
1129 2 -0.510507 -4.3118176716 -8.526024336 -7.6321961227
1299 4 0.130486 0.024949854 -8.557628736 -5.6361639535
971 6 0.485128 1.3427850456 -6.666000048 -6.6836641496
975 6 0.493082 0.513484092 -6.7590434016 -0.3331856882
1008 5 -0.610974 2.5784735136 -6.5087365536 -7.6507817279
1074 2 -0.504942 2.2710000978 -11.9080322496 -6.4646082725
1076 2 -0.51849 0.9242981934 -8.5572916224 -6.3180914519
1085 2 -0.511 0.575992866 -11.4937196352 -3.1957388992
1087 2 -0.515538 1.1171900754 -8.2986412128 -1.4207046325
1280 4 0.14379 2.6363947338 -10.8623901408 -6.6240259645
1285 4 0.133241 0.7038809886 -9.0592537728 -7.296058709
1289 4 0.13566 1.8163493712 -9.008096784 -5.8123022167
1293 4 0.120591 2.3995589154 -6.5101692864 -4.3590696151
1294 4 0.130082 1.2843540972 -11.9221910208 -5.9306010624
1317 4 0.123894 1.4852674914 -11.144132832 -3.7515795318
1318 4 0.0948675 3.5216316504 -11.9049982272 -1.7320262548
1319 4 0.108844 1.9990466892 -7.9535211648 -2.0222958613
1326 4 0.139689 2.4656894424 -11.3367932544 -0.3168067909
1327 4 0.141943 0.1033943412 -10.6643359008 -2.6110015404
1328 4 0.130373 0.2628587844 -8.5904130336 -2.0843334246
1329 4 0.139398 1.3959309174 -9.1261708224 -0.7188635206
996 6 0.515122 -8.8783116486 -4.7144494176 -1.141619867
997 6 0.732524 -7.012384503 -4.8648863616 -3.5431737684
1027 5 -0.61007 -7.646593695 -4.5915715104 -2.1124947092
1136 2 -0.510846 -7.4865390402 -1.0506988128 -1.7378638225
1144 2 -0.532495 -8.2014730824 -4.1434632576 -4.9871520632
1146 2 -0.511494 -10.488194271 -3.8500901472 -1.9004730246
1469 4 0.15605 -8.491803534 -1.5395135328 -1.6837628998
1472 4 0.160878 -7.0209157434 -1.17779064 -2.7496169603
1475 4 0.173124 -6.8049251256 -1.420933824 -0.9307013448
1496 4 0.110075 -7.700383434 -4.3655368416 -5.9639564033
1497 4 0.103626 -9.1913652468 -4.6591627872 -4.9013352215
1498 4 0.131326 -8.292741258 -3.0421131264 -4.8134039852
1499 4 0.095721 -11.3127413384 -3.9567866016 -1.1473501828
1500 4 0.127018 -10.234000866 -2.77486632 -2.083138332
1501 4 0.108957 -10.7299664046 -4.383740976 -2.8562100272
1357 4 0.154618 -3.406862322 -5.9924470752 -0.3847585304
995 6 0.49362 -4.3877135178 -3.8431793184 -4.6782972346
1026 5 -0.613844 -5.5625028798 -4.245103008 -3.711222174
1075 2 -0.524049 -0.2923425366 -5.848499568 -7.4415122037
1078 2 -0.524338 -1.0804359894 -0.085542576 -5.4929213802
1140 2 -0.520041 -3.7372735068 -5.3341484928 -5.8235177011
1141 2 -0.510251 -4.9712718234 -2.4635419104 -5.950795063
1142 2 -0.523981 -2.8562485548 -3.1012765632 -3.6697769755
1286 4 0.12873 -0.0780152424 -4.762572384 -7.6138005833
1295 4 0.130149 -1.2698134296 -0.6191091264 -6.4602446523
1296 4 0.122354 -1.1084173848 -5.992615632 -6.6862305343
1298 4 0.132826 -0.0666134274 -3.2766599136 -5.3212417317
1304 4 0.122472 -1.9288651644 -0.2289001344 -4.7740118945
1308 4 0.137377 -0.7095416544 -2.8269503712 -3.6341999881
1310 4 0.124746 -0.2611954608 -0.0983528928 -2.3768093559
1330 4 0.12728 -0.811809228 -5.9128039872 -2.3388268616
1334 4 0.142974 -0.5752416876 -4.5807838752 -1.0738213445
1339 4 0.132417 -0.6471938472 -2.606730912 -0.1010772549
1479 4 0.140924 -4.3817309184 -0.418863648 -3.2365252646
1484 4 0.133321 -3.2352448854 -2.237170128 -3.0668067937
1485 4 0.134645 -2.4502902852 -3.916417248 -3.0161532535
1486 4 0.131385 -2.1006972234 -2.7687139968 -4.4365974171
1488 4 0.129931 -4.5843881196 -5.6364551136 -6.4906520982
1489 4 0.123181 -2.8781936952 -4.9316348544 -6.4204787122
1490 4 0.129408 -5.5943743062 -2.9693808672 -6.7353994018
1491 4 0.140442 -5.5586128488 -1.6998110496 -5.3791117926
1492 4 0.132314 -4.0276039584 -2.025209952 -6.3877592218
1088 2 -0.514665 -0.0870025554 -5.4092405472 -1.6471593585
1079 2 -0.519372 0.1688005176 -2.790036432 -4.3387836843
968 6 0.713095 2.4832079958 -0.9653247936 -7.005369288
972 6 0.477778 0.5333903196 -0.8825634048 -4.6692727533
1007 5 -0.607212 3.8965769832 -0.2664040224 -7.196746514
1010 5 -0.611933 1.7999039298 -0.6924313344 -5.5917463452
1069 2 -0.513654 2.7159659886 -2.9233648608 -7.2798498826
1077 2 -0.509558 1.6526997912 -5.8685578272 -4.8937816234
1080 2 -0.512362 0.7548538086 -0.1081291872 -2.8526247494
1271 4 0.169693 3.3908461254 -3.2976452352 -6.4696276614
1278 4 0.146284 1.705577385 -3.4019818944 -7.2232362011
1292 4 0.147061 2.0340569682 -4.827466752 -5.0453592015
1300 4 0.129438 0.6636124608 -5.8710019008 -4.3640644893
1301 4 0.138334 1.084916232 -3.2297168448 -3.8673043319
1303 4 0.123182 1.4567763678 -0.7727486496 -2.2866258297
1323 4 0.125065 0.8218428252 -5.0508887904 -2.1977599697
1324 4 0.0948009 2.8313791842 -5.7211549056 -0.1360720177
1331 4 0.112898 1.1379816204 -2.1190118112 -0.0649333646
1247 4 0.114208 7.0484947218 -0.3613857792 -6.6230760191
993 6 0.733373 -7.7258966718 0.8982391872 -1.449586037
1134 2 -0.531192 -8.8933352166 1.5454972992 -2.9556478602
1409 4 0.0982067 -7.0516067466 4.6980151296 -7.2312402572
1461 4 0.111478 -11.4693191104 1.385536896 -0.9409515621
1462 4 0.123337 -11.0081384972 2.9888491776 -0.1335439372
1463 4 0.108134 -9.8576873154 0.9804106272 -2.8993559344
1466 4 0.126741 -9.0494998404 2.642549232 -2.804790402
1468 4 0.109205 -8.34612858 1.3348012992 -3.9094543286
1024 5 -0.608106 -8.42527059 1.1788019808 -0.0515268771
985 6 0.49481 -4.59694353 4.0418235072 -7.1900034338
994 6 0.491682 -5.1096764436 1.947673824 -2.5595053067
1025 5 -0.609719 -6.2808440526 1.5489527136 -1.5816897344
1081 2 -0.523932 -0.9944797182 5.763799776 -2.632114843
1114 2 -0.519061 -5.0751758928 2.1758154528 -6.7566858396
1115 2 -0.5151 -4.2014481024 5.087044224 -5.5360826091
1137 2 -0.513854 -5.7207332442 3.3891715776 -3.7411914192
1138 2 -0.515951 -4.6137645606 0.5026363776 -3.8270235826
1139 2 -0.518754 -3.4651591314 2.5191656544 -1.597440442
1297 4 0.137878 -0.864123438 1.0007217216 -5.6627011379
1305 4 0.128082 -1.2077607282 5.2055396544 -3.5802829258
1306 4 0.132741 -0.2125030038 2.61684432 -2.3815897263
1313 4 0.120886 -1.8285291924 5.6482540896 -1.8915557952
1314 4 0.130464 -0.6915938562 3.1097044032 -0.6614684324
1342 4 0.128767 -1.5198753534 0.1839797472 -0.0759190235
1405 4 0.145056 -4.1556798756 1.6675324224 -6.3682439725
1408 4 0.12945 -3.472322154 4.512265536 -4.9067897467
1410 4 0.121102 -5.8877094714 2.2012675296 -5.9845947332
1411 4 0.130661 -5.1739558524 5.253494064 -5.0014778527
1418 4 0.134521 -5.3868344454 5.857770192 -1.6199480193
1425 4 0.130543 -4.138858845 5.4323328288 -0.3189058638
1474 4 0.124282 -6.6741932562 3.0568618464 -4.2295859284
1476 4 0.133648 -5.4900946476 0.3464685024 -4.507184489
1477 4 0.131955 -5.8685007666 4.3087332 -3.1172917952
1478 4 0.151252 -4.8875422596 3.5078355648 -4.4925063004
1480 4 0.125277 -3.7191915696 0.8641907136 -4.3973738651
1481 4 0.135925 -3.7445974962 3.3802380672 -0.939833078
1482 4 0.132792 -3.0949354914 1.6481483904 -0.9988522664
1483 4 0.123743 -2.718326835 2.8256019168 -2.3759666624
967 6 0.512265 5.1515278116 5.793297216 -5.3709453265
970 6 0.719714 2.5367294568 4.7972950848 -4.1761898039
973 6 0.487957 0.6149736594 4.9586039424 -1.8135683422
1009 5 -0.607858 3.9753165762 5.4403392768 -4.3816384792
1011 5 -0.613242 1.8758266038 5.0733068448 -2.7550255204
1063 2 -0.505936 5.6957029068 4.25816616 -6.4956852766
1072 2 -0.533567 1.3355415396 5.4652856832 -5.6264193523
1073 2 -0.512142 2.6789972802 2.8356310464 -4.4720211875
1082 2 -0.514892 0.131858637 3.0856007808 -1.4238302593
1245 4 0.102346 6.537532443 4.6057302816 -7.1509775317
1255 4 0.138034 6.4593830616 1.389329424 -6.4738135499
1258 4 0.138033 4.8047516688 3.9528255168 -7.1023954854
1259 4 0.138593 6.0232971726 3.438980112 -5.8064493273
1272 4 0.140282 1.8394212792 5.2381553952 -6.6006588398
1274 4 0.173646 3.2020052412 2.6811487392 -5.450847992
1284 4 0.154788 3.2729647722 2.4134805408 -3.6226014612
1288 4 0.139081 0.3582316134 4.926493872 -5.5367874073
1291 4 0.150354 1.639715136 2.419211472 -4.4951263111
1302 4 0.145932 1.1658557046 0.926641008 -2.9594629635
1309 4 0.132987 1.0483499406 2.582290176 -1.0213138786
1333 4 0.129629 0.2172246966 0.8228942976 -0.0097139578
1083 2 -0.511085 0.9016555302 5.8011351072 -0.0407710437
1060 2 -0.50652 6.7231003356 0.5576701728 -7.1755351525
1263 4 0.11468 7.090855818 5.548889856 -3.7307573415
1116 2 -0.530239 -8.939961933 7.3859061408 -0.1764446972
1413 4 0.112431 -8.4331043076 7.1355992928 -1.1437342616
1415 4 0.11115 -9.9232812864 6.861104544 -0.0730538656
1416 4 0.128508 -9.0409954278 8.4917230272 -0.0382276415
1407 4 0.156485 -3.761391699 6.054138864 -5.8805450685
1197 4 0.0961984 -6.6582038874 10.8616316352 -6.0653554139
959 6 0.495423 -4.2196910064 10.1296737312 -5.9654885733
1002 5 -0.610371 -2.9551626534 10.2277737888 -6.9019324913
1029 2 -0.510035 -2.0962169808 11.254958928 -0.9261354782
1044 2 -0.51583 -4.7006061492 8.26349712 -5.5510978751
1045 2 -0.514345 -5.8133696376 10.9531579776 -6.7978200076
1046 2 -0.507876 -3.916188105 10.9493654496 -4.1836667935
1117 2 -0.516555 -5.6163462744 9.1759793568 -1.2035961435
1118 2 -0.518494 -4.5158162628 6.2216000448 -1.017667314
1151 4 0.129408 -1.2197795826 8.2940059008 -0.2295497094
1153 4 0.130683 -2.1023337192 10.683129984 -1.8878326221
1158 4 0.141363 -0.8868734124 10.804069488 -3.59600299
1196 4 0.110293 -5.5400211834 8.2909718784 -4.8066624372
1198 4 0.11319 -4.8745039488 10.8500854944 -3.6087046793
1199 4 0.134224 -5.012237874 7.7694571392 -6.5083410008
1200 4 0.138995 -3.7836856008 7.7904424608 -5.113923809
1202 4 0.133103 -3.0904015932 10.3734911424 -3.6942457304
1203 4 0.132119 -5.5637906142 12.0243364416 -7.009605738
1204 4 0.12636 -3.6364009788 12.0223980384 -4.3344782866
1307 4 0.13019 -0.7708163496 6.84129912 -2.834361283
1412 4 0.115128 -6.4511737548 8.788551552 -1.8430319713
1414 4 0.125083 -4.6968502572 9.3875181408 -1.8102128899
1417 4 0.131486 -5.9318680302 10.0696675104 -0.608731141
1420 4 0.122013 -3.698078091 6.6093649632 -1.6797486144
1149 4 0.136393 -3.0017893698 11.016029664 -0.2966434337
954 6 0.721778 1.3504846242 10.674702144 -2.2939036372
955 6 0.520988 3.934028592 11.7115792992 -3.4931024528
998 5 -0.605599 0.7586365284 10.9159912032 -0.8314473722
999 5 -0.605528 2.7726263022 11.335866192 -2.5055729227
1031 2 -0.516925 1.4516790858 8.7148922304 -2.5865174638
1032 2 -0.524212 0.0772372362 11.3599698144 -3.7017686851
1033 2 -0.50892 4.4461444662 10.1653234944 -4.6159072722
1065 2 -0.516749 4.618003353 7.1995665984 -6.6515054334
1157 4 0.135935 0.3977489628 8.3383363392 -2.5671355133
1159 4 0.173725 2.056216731 8.2817012544 -1.7501671476