# LAMMPS data file written by Ovito Basic 3.0.0-dev791
2032 atoms
4 atom types
-13.21865 13.21865 xlo xhi
-48.25865 48.25865 ylo yhi
-7.1665 7.1665 zlo zhi

Atoms  # charge

1529 4 0.0 -11.330273317 -38.2196921099 -5.374875
1530 4 0.0 -9.4418966339 -38.2196921099 -7.1664999947
1531 4 0.0 -7.5535067322 -38.2196921099 -5.374875
1539 4 0.0 -11.330273317 -38.2196921099 -1.791625
1540 4 0.0 -9.4418966339 -38.2196921099 -3.58325
1542 4 0.0 -7.5535067322 -38.2196921099 -1.791625
1550 4 0.0 -9.4418966339 -38.2196921099 0.0
1553 4 0.0 -5.6651432678 -38.2196921099 -7.1664999918
1554 4 0.0 -3.7767533661 -38.2196921099 -5.374875
1556 4 0.0 -1.8883899017 -38.2196921099 -7.1664999912
1562 4 0.0 -5.6651432678 -38.2196921099 -3.58325
1564 4 0.0 -3.7767533661 -38.2196921099 -1.791625
1566 4 0.0 -1.8883899017 -38.2196921099 -3.58325
1574 4 0.0 0.0 -38.2196921099 -5.374875
1578 4 0.0 0.0 -38.2196921099 -1.791625
1581 4 0.0 -5.6651432678 -38.2196921099 0.0
1582 4 0.0 -1.8883899017 -38.2196921099 0.0
1585 4 0.0 1.8883899017 -38.2196921099 -7.166499995
1586 4 0.0 3.7767533661 -38.2196921099 -5.374875
1588 4 0.0 5.6651432678 -38.2196921099 -7.1664999945
1594 4 0.0 1.8883899017 -38.2196921099 -3.58325
1596 4 0.0 3.7767533661 -38.2196921099 -1.791625
1598 4 0.0 5.6651432678 -38.2196921099 -3.58325
1606 4 0.0 1.8883899017 -38.2196921099 0.0
1607 4 0.0 5.6651432678 -38.2196921099 0.0
1609 4 0.0 13.21865 -38.2196921099 -7.1664999941
1612 4 0.0 13.21865 -38.2196921099 -3.58325
1616 4 0.0 7.5535067322 -38.2196921099 -5.374875
1617 4 0.0 9.4418966339 -38.2196921099 -7.166499993
1618 4 0.0 11.3302600983 -38.2196921099 -5.374875
1626 4 0.0 7.5535067322 -38.2196921099 -1.791625
1627 4 0.0 9.4418966339 -38.2196921099 -3.58325
1629 4 0.0 11.3302600983 -38.2196921099 -1.791625
1637 4 0.0 13.21865 -38.2196921099 0.0
1638 4 0.0 9.4418966339 -38.2196921099 0.0
1532 4 0.0 -9.4418966339 -36.3802824016 -5.374875
1533 4 0.0 -11.330273317 -32.6107063371 -7.1664998744
1534 4 0.0 -11.330273317 -34.5122700738 -5.374875
1536 4 0.0 -7.5535067322 -34.5122700738 -5.374875
1537 4 0.0 -9.4418966339 -32.6107063371 -5.374875
1538 4 0.0 -11.330273317 -36.3802824016 -3.58325
1541 4 0.0 -7.5535067322 -36.3802824016 -3.58325
1543 4 0.0 -9.4418966339 -36.3802824016 -1.791625
1544 4 0.0 -11.330273317 -32.6107063371 -3.58325
1545 4 0.0 -11.330273317 -34.5122700738 -1.791625
1546 4 0.0 -9.4418966339 -34.5122700738 -3.58325
1547 4 0.0 -7.5535067322 -32.6107063371 -3.58325
1548 4 0.0 -7.5535067322 -34.5122700738 -1.791625
1549 4 0.0 -9.4418966339 -32.6107063371 -1.791625
1756 4 0.0 -11.330273317 -36.3802824016 -7.1664999925
1757 4 0.0 -7.5535067322 -36.3802824016 -7.1664999893
1758 4 0.0 -9.4418966339 -34.5122700738 -7.1664999556
1759 4 0.0 -11.330273317 -36.3802824016 0.0
1761 4 0.0 -7.5535067322 -36.3802824016 0.0
1765 4 0.0 -9.4418966339 -34.5122700738 0.0
1555 4 0.0 -5.6651432678 -36.3802824016 -5.374875
1557 4 0.0 -1.8883899017 -36.3802824016 -5.374875
1559 4 0.0 -3.7767533661 -34.5122700738 -5.374875
1560 4 0.0 -5.6651432678 -32.6107063371 -5.374875
1561 4 0.0 -1.8883899017 -32.6107063371 -5.374875
1563 4 0.0 -3.7767533661 -36.3802824016 -3.58325
1565 4 0.0 -5.6651432678 -36.3802824016 -1.791625
1567 4 0.0 -1.8883899017 -36.3802824016 -1.791625
1568 4 0.0 -5.6651432678 -34.5122700738 -3.58325
1569 4 0.0 -3.7767533661 -32.6107063371 -3.58325
1570 4 0.0 -3.7767533661 -34.5122700738 -1.791625
1571 4 0.0 -5.6651432678 -32.6107063371 -1.791625
1572 4 0.0 -1.8883899017 -34.5122700738 -3.58325
1573 4 0.0 -1.8883899017 -32.6107063371 -1.791625
1780 4 0.0 -3.7767533661 -36.3802824016 -7.1664999888
1577 4 0.0 0.0 -36.3802824016 -3.58325
1783 4 0.0 0.0 -36.3802824016 -7.166499989
1580 4 0.0 0.0 -34.5122700738 -1.791625
1784 4 0.0 -3.7767533661 -36.3802824016 0.0
1788 4 0.0 -5.6651432678 -34.5122700738 0.0
1791 4 0.0 -1.8883899017 -34.5122700738 0.0
1805 4 0.0 0.0 -36.3802824016 0.0
1576 4 0.0 0.0 -34.5122700738 -5.374875
1579 4 0.0 0.0 -32.6107063371 -3.58325
1587 4 0.0 1.8883899017 -36.3802824016 -5.374875
1589 4 0.0 5.6651432678 -36.3802824016 -5.374875
1590 4 0.0 3.7767533661 -32.6107063371 -7.1664989863
1591 4 0.0 3.7767533661 -34.5122700738 -5.374875
1592 4 0.0 1.8883899017 -32.6107063371 -5.374875
1593 4 0.0 5.6651432678 -32.6107063371 -5.374875
1595 4 0.0 3.7767533661 -36.3802824016 -3.58325
1597 4 0.0 1.8883899017 -36.3802824016 -1.791625
1599 4 0.0 5.6651432678 -36.3802824016 -1.791625
1600 4 0.0 1.8883899017 -34.5122700738 -3.58325
1601 4 0.0 3.7767533661 -32.6107063371 -3.58325
1602 4 0.0 3.7767533661 -34.5122700738 -1.791625
1603 4 0.0 1.8883899017 -32.6107063371 -1.791625
1604 4 0.0 5.6651432678 -34.5122700738 -3.58325
1605 4 0.0 5.6651432678 -32.6107063371 -1.791625
1812 4 0.0 3.7767533661 -36.3802824016 -7.1664999943
1813 4 0.0 1.8883899017 -34.5122700738 -7.1664999187
1814 4 0.0 5.6651432678 -34.5122700738 -7.1664999515
1608 4 0.0 3.7767533661 -32.6107063371 0.0
1819 4 0.0 1.8883899017 -34.5122700738 0.0
1822 4 0.0 5.6651432678 -34.5122700738 0.0
1610 4 0.0 13.21865 -36.3802824016 -5.374875
1611 4 0.0 13.21865 -32.6107063371 -5.374875
1613 4 0.0 13.21865 -36.3802824016 -1.791625
1614 4 0.0 13.21865 -34.5122700738 -3.58325
1615 4 0.0 13.21865 -32.6107063371 -1.791625
1836 4 0.0 13.21865 -34.5122700738 -7.1664999762
1619 4 0.0 9.4418966339 -36.3802824016 -5.374875
1620 4 0.0 7.5535067322 -32.6107063371 -7.1664997366
1621 4 0.0 7.5535067322 -34.5122700738 -5.374875
1623 4 0.0 11.3302600983 -34.5122700738 -5.374875
1624 4 0.0 9.4418966339 -32.6107063371 -5.374875
1625 4 0.0 7.5535067322 -36.3802824016 -3.58325
1628 4 0.0 11.3302600983 -36.3802824016 -3.58325
1630 4 0.0 9.4418966339 -36.3802824016 -1.791625
1631 4 0.0 7.5535067322 -32.6107063371 -3.58325
1632 4 0.0 7.5535067322 -34.5122700738 -1.791625
1633 4 0.0 9.4418966339 -34.5122700738 -3.58325
1634 4 0.0 11.3302600983 -32.6107063371 -3.58325
1635 4 0.0 11.3302600983 -34.5122700738 -1.791625
1636 4 0.0 9.4418966339 -32.6107063371 -1.791625
1837 4 0.0 7.5535067322 -36.3802824016 -7.1664999937
1838 4 0.0 11.3302600983 -36.3802824016 -7.1664999919
1839 4 0.0 9.4418966339 -34.5122700738 -7.1664999859
1841 4 0.0 13.21865 -34.5122700738 0.0
1639 4 0.0 7.5535067322 -32.6107063371 0.0
1849 4 0.0 11.3302600983 -36.3802824016 0.0
1853 4 0.0 9.4418966339 -34.5122700738 0.0
1641 4 0.0 -11.330273317 -30.6959919708 -5.374875
1642 4 0.0 -7.5535067322 -30.6959919708 -5.374875
1643 4 0.0 -9.4418966339 -28.7810180526 -5.374903666
1644 4 0.0 -11.3302786044 -26.8766857623 -5.374875
1645 4 0.0 -7.5535067322 -26.8766857623 -5.374860667
1646 4 0.0 -11.3302759607 -28.7810180526 -3.583221334
1647 4 0.0 -11.3302706732 -30.6959919708 -1.791625
1648 4 0.0 -9.4418966339 -30.6959919708 -3.58325
1649 4 0.0 -7.5535067322 -28.7810180526 -3.58325
1650 4 0.0 -7.5535067322 -30.6959919708 -1.791625
1651 4 0.0 -9.4418966339 -28.7810180526 -1.791582001
1652 4 0.0 -11.3302891793 -26.876599245 -1.791438671
1653 4 0.0 -9.4418966339 -26.8768587969 -3.583350331
1654 4 0.0 -7.5534538576 -26.8767722796 -1.791610667
1711 4 0.0 -9.4418701966 -25.0011637329 -5.374789002
1714 4 0.0 -11.3303050417 -25.0010772156 -3.583178335
1715 4 0.0 -13.2185157213 -25.000904181 -1.791381339
1716 4 0.0 -7.5533481084 -25.0009906983 -3.583221334
1717 4 0.0 -9.4417115728 -25.0018558713 -1.79234165
1693 4 0.0 -13.2186461586 -28.7810180526 -1.791596334
1694 4 0.0 -13.218636777 -26.8766857623 -3.583192668
1691 4 0.0 -13.2186486948 -28.7810180526 -5.374889333
1967 4 0.0 -7.5537446679 -25.0011637329 -7.1663839927
1971 4 0.0 -7.5524756775 -25.000904181 -1.00331e-04
1656 4 0.0 -3.7767533661 -30.6959919708 -5.374875
1657 4 0.0 -5.6651432678 -28.7811045699 -5.374846334
1659 4 0.0 -1.8883899017 -28.7810180526 -5.374875
1660 4 0.0 -3.7767533661 -26.8766857623 -5.374875
1661 4 0.0 -5.6651432678 -30.6959919708 -3.58325
1662 4 0.0 -3.7767533661 -28.7811045699 -3.583292999
1663 4 0.0 -3.7767533661 -30.6959919708 -1.791625
1664 4 0.0 -5.6651432678 -28.7811045699 -1.791639333
1665 4 0.0 -1.8883899017 -30.6959919708 -3.58325
1666 4 0.0 -1.8883634644 -28.7811045699 -1.791639333
1667 4 0.0 -5.6651432678 -26.876599245 -3.583207001
1668 4 0.0 -3.7767798034 -26.8771183488 -1.792026324
1669 4 0.0 -1.8883370271 -26.8767722796 -3.583292999
1723 4 0.0 -5.6651168305 -25.0009906983 -5.374917999
1724 4 0.0 -1.8883634644 -25.0010772156 -5.374860667
1726 4 0.0 -3.7767798034 -25.0011637329 -3.583221334
1727 4 0.0 -5.6651697051 -25.0004715945 -1.79133834
1728 4 0.0 -1.8880197795 -25.0015098021 -1.792083656
1894 4 0.0 -1.8883370271 -26.8766857623 -7.1664858029
1988 4 0.0 -3.7771499256 -25.0033266654 -0.002450943
1893 4 0.0 -5.6651432678 -26.8771183488 -7.1661289272
1903 4 0.0 -1.8882048406 -26.8768587969 -1.4333e-04
1892 4 0.0 -3.7767533661 -28.7811045699 -7.1664706502
1901 4 0.0 -5.6652225797 -26.8771183488 -1.57663e-04
1670 4 0.0 0.0 -30.6959919708 -5.374875
1672 4 0.0 0.0 -28.7810180526 -3.583235667
1674 4 0.0 1.321865e-04 -26.8767722796 -1.791582001
1737 4 0.0 1.321865e-04 -25.0009906983 -3.583063671
1671 4 0.0 5.2874599998e-05 -26.8766857623 -5.374860667
1673 4 0.0 0.0 -30.6959919708 -1.791625
1677 4 0.0 3.7767533661 -30.6959919708 -5.374875
1678 4 0.0 1.8883899017 -28.7810180526 -5.374875
1679 4 0.0 5.6651432678 -28.7809315353 -5.37501833
1680 4 0.0 3.776832678 -26.876599245 -5.374989664
1681 4 0.0 1.8883899017 -30.6959919708 -3.58325
1682 4 0.0 3.7767533661 -28.7810180526 -3.583178335
1683 4 0.0 3.7767533661 -30.6959919708 -1.791625
1684 4 0.0 1.888416339 -28.7810180526 -1.791567668
1685 4 0.0 5.6651432678 -30.6959919708 -3.58325
1686 4 0.0 5.6651168305 -28.7809315353 -1.791510336
1687 4 0.0 1.8884427763 -26.876599245 -3.583135336
1688 4 0.0 3.7767798034 -26.8761666585 -1.791037347
1689 4 0.0 5.6650903932 -26.8766857623 -3.583149669
1733 4 0.0 1.8884427763 -25.0010772156 -5.374889333
1734 4 0.0 5.6651432678 -25.0009906983 -5.374645672
1738 4 0.0 3.7767533661 -25.0009906983 -3.583121003
1739 4 0.0 1.8887600239 -25.0005581118 -1.791066013
1740 4 0.0 5.6648260202 -25.0007311464 -1.791324007
1920 4 0.0 5.6651432678 -30.6959919708 -7.166497227
2000 4 0.0 6.609325e-04 -25.0009906983 -2.43661e-04
1927 4 0.0 5.6651432678 -30.6959919708 0.0
1692 4 0.0 13.21865 -30.6959919708 -3.58325
1744 4 0.0 13.21865 -25.0011637329 -5.374875
1695 4 0.0 7.5535067322 -30.6959919708 -5.374889333
1697 4 0.0 11.3302600983 -30.6959919708 -5.374875
1698 4 0.0 9.4418701966 -28.7810180526 -5.374903666
1699 4 0.0 7.5534274203 -26.876599245 -5.375003997
1700 4 0.0 11.3302600983 -26.8766857623 -5.374903666
1701 4 0.0 7.5535067322 -28.7810180526 -3.583264333
1702 4 0.0 7.5535067322 -30.6959919708 -1.791625
1703 4 0.0 9.4418966339 -30.6959919708 -3.58325
1704 4 0.0 11.3302600983 -28.7810180526 -3.58325
1705 4 0.0 11.3302600983 -30.6959919708 -1.791625
1706 4 0.0 9.4418966339 -28.7810180526 -1.791625
1707 4 0.0 7.5534274203 -26.8767722796 -1.791625
1708 4 0.0 9.4418701966 -26.8766857623 -3.58325
1709 4 0.0 11.3302865356 -26.8766857623 -1.791582001
1746 4 0.0 9.4417644474 -25.0010772156 -5.374975331
1749 4 0.0 7.553400983 -25.0009906983 -3.583035005
1750 4 0.0 11.3302865356 -25.0011637329 -3.583221334
1751 4 0.0 9.4418437593 -25.0010772156 -1.791582001
1755 4 0.0 7.5532159219 -25.0016828367 -2.14995e-04
957 3 0.0 -6.9570548069 -19.4200192272 -1.807133306
1712 4 0.0 -11.330233661 -23.1544519644 -5.374860667
1713 4 0.0 -7.553400983 -23.1543654471 -5.374817668
1718 4 0.0 -11.3300433124 -23.1541058952 -1.79090835
1719 4 0.0 -9.4418437593 -23.1543654471 -3.58296334
1720 4 0.0 -7.5525285521 -23.1535867914 -1.792169654
1721 4 0.0 -9.4378781643 -23.1587778294 -0.003468586
1722 4 0.0 -13.2185625898 -23.1543654471 -3.583164002
2019 4 0.0 -13.2186267045 -23.1544519644 -7.1664925669
1968 4 0.0 -9.4419759458 -23.1544519644 -7.166396173
8 1 0.0 -6.0182398466 -18.9886439694 -1.51671806
9 1 0.0 -3.7410630111 -19.4073011841 -0.651234188
10 1 0.0 -5.0461403256 -19.8589214901 -0.970014441
953 3 0.0 -5.3054638013 -20.8894290504 -0.863061595
967 3 0.0 -2.9400656957 -20.0831743317 -0.368573095
1725 4 0.0 -3.7767798034 -23.1543654471 -5.374803335
1729 4 0.0 -5.6648524575 -23.153759826 -3.582920341
1730 4 0.0 -3.7758544979 -23.1547980336 -1.792212653
1731 4 0.0 -1.8882048406 -23.1541924125 -3.583078004
1991 4 0.0 -5.6635305925 -23.1472710285 -0.001748626
1993 4 0.0 -1.8895531429 -23.1567014142 -0.001992287
1732 4 0.0 2.64373e-04 -23.153759826 -1.790822352
1735 4 0.0 2.6437300001e-05 -23.1544519644 -5.374917999
15 1 0.0 3.531230161 -18.9972091821 -1.602042409
16 1 0.0 5.7203179129 -19.2625577412 -0.568790772
17 1 0.0 4.4715256101 -19.8204212916 -0.932418982
954 3 0.0 4.2814942977 -20.8685783811 -0.776862933
972 3 0.0 2.6309872214 -19.444763175 -1.952842584
974 3 0.0 6.470793548 -19.8501832428 -0.087617629
1736 4 0.0 3.7767004915 -23.1543654471 -5.374760336
1741 4 0.0 1.8884692136 -23.1541058952 -3.58296334
1742 4 0.0 3.7773349867 -23.152894653 -1.791123345
1743 4 0.0 5.6650375186 -23.1538463433 -3.582992006
2006 4 0.0 5.664984644 -23.1541058952 -7.1661075911
1747 4 0.0 7.5534802949 -23.1544519644 -5.374760336
1748 4 0.0 11.3301807864 -23.1544519644 -5.374932332
1752 4 0.0 7.5530837354 -23.153759826 -1.791123345
1753 4 0.0 9.4417908847 -23.1544519644 -3.58310667
1754 4 0.0 11.3303658475 -23.1543654471 -1.791567668
2025 4 0.0 9.4420288204 -23.1543654471 -2.14995e-04
1973 4 0.0 13.2185706881 -23.1532407222 -8.5998e-05
1 1 0.0 -9.9568423633 -15.1000374036 -3.32353604
2 1 0.0 -8.5855396123 -15.4418672559 -3.257876567
20 1 0.0 -7.9035894588 -13.1116102977 -3.461175839
21 1 0.0 -7.5640287776 -14.4706240461 -3.380352052
22 1 0.0 -9.2677012642 -12.7597444386 -3.331791848
23 1 0.0 -10.2988617134 -13.7289112332 -3.33500244
955 3 0.0 -10.6636567975 -15.1362881523 -0.284209057
958 3 0.0 -10.7014753551 -15.8726368926 -3.259725524
959 3 0.0 -8.2891246047 -16.4485825587 -3.099855242
982 3 0.0 -11.3126396378 -13.4163242283 -3.242970247
160 1 0.0 -9.653315722 -14.7544007901 -0.273731634
1180 3 0.0 -10.169371818 -12.647098914 -0.354555421
980 3 0.0 -7.1243500413 -12.3876335313 -3.495517707
121 1 0.0 -8.583926937 -15.6731279988 -0.141194383
157 1 0.0 -8.0544406926 -12.9119283693 -0.07524825
158 1 0.0 -9.378103429 -13.3649329521 -0.283721735
956 3 0.0 -8.7750157414 -16.7308885086 -0.100459997
981 3 0.0 -6.5335821355 -14.74254792 -3.372870226
3 1 0.0 -0.6488770912 -15.0243347661 -3.177855428
4 1 0.0 -4.109413912 -15.6548728485 -1.602759059
5 1 0.0 -4.4591529537 -17.1479884119 -1.366164228
6 1 0.0 -5.7457770328 -17.6151818319 -1.723299589
7 1 0.0 -3.4802854839 -18.0394626711 -0.842135415
28 1 0.0 -0.9646177651 -13.6542468033 -3.169757283
960 3 0.0 -1.0647622575 -15.4281110052 -0.205219894
961 3 0.0 -1.4253405922 -15.7569632625 -3.044085539
962 3 0.0 -4.8049264004 -15.1548028545 -2.26576064
963 3 0.0 -3.0932962865 -15.5364306648 -1.992473329
964 3 0.0 -6.471057921 -16.9605919401 -2.180163964
965 3 0.0 -2.4577964691 -17.7869186724 -0.664434881
966 3 0.0 -4.1954673235 -15.0995182998 -0.677965233
988 3 0.0 -1.9622292806 -13.2902685222 -2.989691804
991 3 0.0 -0.5598627021 -13.1619633663 -1.372513747
134 1 0.0 -0.0944340356 -14.9849693946 -0.238171461
1207 3 0.0 -1.3077739191 -12.8828585565 -0.248777881
11 1 0.0 5.2872220643 -15.5701724118 -1.559158073
12 1 0.0 5.0134902601 -17.0890701306 -1.411886498
13 1 0.0 3.7794235334 -17.6272077366 -1.844026448
14 1 0.0 5.9942083409 -17.8981799202 -0.801773687
18 1 0.0 0.7049770418 -15.4099423722 -3.372296906
32 1 0.0 1.4668735905 -13.0820213811 -3.553609356
33 1 0.0 1.747241157 -14.4638756967 -3.55358069
34 1 0.0 0.1114067822 -12.7542938487 -3.358594558
969 3 0.0 4.6264746254 -15.2092222362 -2.337884296
970 3 0.0 6.3470405467 -15.3738646581 -1.778194979
971 3 0.0 3.0499655518 -16.9929494103 -2.314177514
973 3 0.0 5.0114281507 -14.9792592528 -0.685948714
975 3 0.0 0.9663361896 -16.448669076 -3.368699323
998 3 0.0 2.7645220237 -14.7749053902 -3.638833374
203 1 0.0 0.1461453944 -13.6693008135 -0.737045859
202 1 0.0 1.3057646843 -13.0204210635 -0.238372123
976 3 0.0 6.9023031586 -17.4429258876 -0.476514918
19 1 0.0 -9.6034549742 -11.2760592609 -3.034124104
977 3 0.0 -7.4031049325 -9.6888993924 -2.31133958
979 3 0.0 -7.3208320549 -11.0848560279 -0.996960481
983 3 0.0 -10.5965800799 -11.1894554436 -2.612834235
984 3 0.0 -8.8741820537 -10.8416558976 -2.354223916
985 3 0.0 -9.5996744403 -10.6621325001 -3.923429422
1004 3 0.0 -8.2543066806 -6.7083784074 -3.186111236
1011 3 0.0 -6.7696672245 -7.2370856277 -1.451187584
156 1 0.0 -7.729737774 -11.3963183079 -0.048889863
24 1 0.0 -6.40311406 -9.3308042877 -2.165329309
25 1 0.0 -4.0448804627 -10.030815762 -1.846692386
26 1 0.0 -5.4176108279 -10.2875125911 -2.354997898
27 1 0.0 -0.320684449 -11.2734637419 -3.235517087
44 1 0.0 -4.7174982493 -7.6110133983 -1.832015394
45 1 0.0 -6.0634211923 -7.9871041014 -1.768233544
46 1 0.0 -3.68007216 -8.549639586 -2.081194599
986 3 0.0 -3.4196911923 -10.7486498001 -2.355943876
987 3 0.0 -5.6374369774 -11.2218994311 -2.817595473
989 3 0.0 -1.2805435001 -11.3075515581 -2.733088105
990 3 0.0 -0.4647148594 -10.776594888 -4.192201838
1012 3 0.0 -2.6856595578 -8.243368344 -1.910388238
1007 3 0.0 -1.4374224383 -6.2268231156 -3.255196296
185 1 0.0 -1.7122646091 -10.8007332147 -0.786251048
248 1 0.0 -1.9990035649 -8.213952462 -1.046036673
1205 3 0.0 -0.9911872516 -10.5657522279 -1.510569203
1015 3 0.0 -1.0555885144 -8.1374711688 -1.568058866
1014 3 0.0 -2.0460619589 -7.2786139317 -0.480513825
183 1 0.0 -2.1723265037 -9.5863763919 -0.041408037
184 1 0.0 -3.7621864138 -9.9240534138 -0.18604234
187 1 0.0 -2.0279259711 -12.1097399637 -0.353982101
997 3 0.0 2.2127226981 -12.3061342347 -3.615513583
29 1 0.0 3.174855357 -9.1724776287 -1.974686076
30 1 0.0 5.579327792 -9.8573485755 -1.897373874
31 1 0.0 4.1377282603 -10.1780682066 -2.098050207
48 1 0.0 4.9565178786 -7.5191320257 -1.822211622
49 1 0.0 3.5766230051 -7.830680823 -1.711331534
50 1 0.0 5.9481545643 -8.4441749973 -2.173126461
992 3 0.0 2.1406546183 -9.4646465508 -1.946005743
993 3 0.0 6.3326322182 -10.6369559658 -1.727083501
994 3 0.0 3.7851868648 -11.1751800891 -2.150609318
996 3 0.0 1.7112599917 -11.0812223013 -1.200990736
999 3 0.0 0.406341301 -10.7198395392 -2.647821088
1020 3 0.0 2.8714080276 -7.0821331434 -1.399803779
1023 3 0.0 0.958352125 -6.9278727975 -3.558181583
201 1 0.0 1.5880357364 -11.4924390282 -0.206638861
212 1 0.0 5.917460859 -9.9590929203 -0.073542623
1227 3 0.0 5.1979697395 -9.1527516843 -0.055726704
1025 3 0.0 6.9485684336 -8.1600521841 -2.397996898
1026 3 0.0 7.9993717967 -7.8498011463 -0.835026247
1003 3 0.0 -10.7177713068 -6.1622812098 -3.589914845
35 1 0.0 -8.1356825155 -3.2666336961 -3.176364796
36 1 0.0 -7.7135052718 -4.616563128 -3.109229024
37 1 0.0 -9.5126428487 -2.9927199243 -3.317487514
38 1 0.0 -10.4172215055 -4.0522107801 -3.57106695
39 1 0.0 -9.9815348015 -5.3934019647 -3.491017145
40 1 0.0 -8.6149907645 -5.693703513 -3.259266868
55 1 0.0 -9.9692943316 -1.5169078209 -3.141148615
1002 3 0.0 -6.6931841156 -4.8828633774 -2.963720408
1005 3 0.0 -11.4328764782 -3.8113466169 -3.784241659
1031 3 0.0 -8.1175465277 -1.6433095962 -1.359585381
1032 3 0.0 -7.4456689855 -2.4496508322 -3.10753773
1033 3 0.0 -10.4749341314 -1.4063387115 -2.174731757
1034 3 0.0 -9.1361228221 -0.8192323137 -3.157531234
1035 3 0.0 -10.6296134862 -1.1919488421 -3.943552954
1245 3 0.0 -10.3728597161 -3.3252059082 -0.169172399
280 1 0.0 -7.9975211857 -1.8527679795 -0.298499058
229 1 0.0 -9.4938194911 -3.9152538942 -0.006335186
41 1 0.0 -0.8936864892 -4.1328449037 -3.09392138
42 1 0.0 -0.6386194188 -5.5038845568 -3.295085035
43 1 0.0 -4.3836480249 -6.1421226789 -1.435564614
60 1 0.0 -4.2542638787 -0.2922554394 -1.944257117
61 1 0.0 -5.6846275579 -0.4203875607 -2.290743059
62 1 0.0 -0.2802882546 -1.6770513432 -2.965110709
1006 3 0.0 -1.0004667439 -5.7458734449 -0.130731293
1008 3 0.0 -1.8712585313 -3.847424331 -2.799392563
1009 3 0.0 -5.0392401903 -5.4792271263 -1.971446818
1010 3 0.0 -3.3580394087 -5.8388795424 -1.641787818
1013 3 0.0 -4.5821657106 -5.9588790375 -0.384769385
1016 3 0.0 -0.212820265 -3.5170147623 -1.246698673
1038 3 0.0 -3.73030303 -1.0068883374 -2.559931132
1039 3 0.0 -6.0269641556 -1.3464687399 -2.687322836
1040 3 0.0 -1.2952426389 -1.7048233965 -2.565277341
1041 3 0.0 -0.3261834074 -1.0837156998 -3.872862598
303 1 0.0 -1.6790593603 -1.2165197553 -0.689732626
1323 3 0.0 -1.2029235873 -0.8888787402 -1.561809678
1209 3 0.0 -1.6120672421 -5.2669136721 -5.713950781
302 1 0.0 -3.7791062858 -0.4883036412 -0.243703999
304 1 0.0 -4.2309726174 -1.8720613374 -0.124783098
305 1 0.0 -1.9683891715 -2.6104864929 -0.459501647
306 1 0.0 -3.3299629961 -2.9470387899 -0.154294745
1324 3 0.0 -5.2732896072 -2.0293497888 -0.170548367
1326 3 0.0 -1.180161072 -3.2775348759 -0.210451439
47 1 0.0 5.2637457419 -6.0209984589 -1.503560366
51 1 0.0 1.4920947747 -3.525579975 -3.328323262
52 1 0.0 1.7388605329 -4.9093376712 -3.48994217
53 1 0.0 0.136945214 -3.1557185175 -3.178701075
54 1 0.0 0.7140450357 -5.8894921629 -3.451486731
67 1 0.0 5.4212591753 -0.3159611796 -1.874054083
68 1 0.0 4.0160638057 -0.6391898124 -2.205046052
1018 3 0.0 4.9487188751 -5.384836752 -2.317703432
1019 3 0.0 6.3199158769 -5.8498672395 -1.301407734
1021 3 0.0 4.6594419385 -5.6853113349 -0.668978442
1022 3 0.0 2.73097309 -5.2315280964 -3.698243659
1047 3 0.0 6.1222177475 -1.1258496249 -1.720590652
1048 3 0.0 3.7137532802 -1.615277991 -2.518967418
1051 3 0.0 1.8226138993 -1.7776709631 -1.230230056
1053 3 0.0 2.2771239609 -2.7826559199 -3.348948449
1054 3 0.0 0.3980399888 -1.1598509238 -2.282745245
256 1 0.0 0.3809879303 -4.1042941947 -0.567400471
239 1 0.0 0.0136945214 -5.4141661167 -0.132178926
255 1 0.0 1.5911817751 -3.5881319829 -0.045736603
320 1 0.0 1.8438430512 -2.0649949164 -0.184838368
324 1 0.0 5.7736155097 -0.3612962448 -0.014175337
1028 3 0.0 -7.6177758085 0.3640647984 -1.857872126
70 1 0.0 -8.0153663632 6.0018781356 -3.252860017
71 1 0.0 -7.6882047757 4.6398362817 -3.409591372
73 1 0.0 -10.422112406 5.5452398262 -3.423981704
74 1 0.0 -10.0736159174 4.1799103149 -3.536696416
75 1 0.0 -8.7419426791 3.7053629244 -3.530547559
345 1 0.0 -9.731041384 4.2638320959 -0.14361666
1029 3 0.0 -8.5483687685 2.6531395218 -3.643534598
1059 3 0.0 -10.6860597655 3.7781239737 -0.225372092
1061 3 0.0 -6.6644732078 4.320673962 -3.370032292
1062 3 0.0 -10.809810123 3.4403604345 -3.721778445
1063 3 0.0 -11.4368711543 5.8900112667 -3.505350145
1036 3 0.0 -6.8056483898 2.6403349614 -1.297079168
343 1 0.0 -9.5920869352 5.6681809095 -0.208659814
56 1 0.0 -4.7289984748 2.191483209 -1.745157414
57 1 0.0 -6.1054036247 1.9071008439 -1.637029262
58 1 0.0 -3.7753786265 1.1479115364 -1.932332061
59 1 0.0 -6.576542748 0.5953255413 -1.943927458
77 1 0.0 -0.9159995704 5.4581169051 -3.369086314
78 1 0.0 -0.6499874578 4.0688221017 -3.385855924
79 1 0.0 -4.239749801 3.6586435824 -1.54538406
1037 3 0.0 -2.8069803275 1.3010471574 -1.515227428
1070 3 0.0 -1.4525181366 3.3546217902 -3.380567047
1071 3 0.0 -1.911152417 5.8320446757 -3.413575946
1074 3 0.0 -4.5687355622 4.3202413755 -2.355872211
1075 3 0.0 -3.1564814335 3.7230124536 -1.487894397
1076 3 0.0 -4.6193629917 4.1016986757 -0.630093013
300 1 0.0 -2.113926508 1.2762166923 -0.639925451
357 1 0.0 -0.0823786268 4.3687775808 -0.108343147
1043 3 0.0 -1.1335785494 1.3769228295 -1.082972814
1077 3 0.0 -0.3689853961 6.0846751917 -1.375093687
1322 3 0.0 -4.485087945 0.3245263923 -0.240092083
1046 3 0.0 2.0602852263 0.1310737095 -2.009027944
63 1 0.0 4.8782370333 2.0454420066 -1.697055866
64 1 0.0 3.5245415241 1.6646793693 -1.491162321
65 1 0.0 5.8283407207 1.0997214003 -2.080979604
66 1 0.0 3.0979756886 0.3695153883 -1.92248529
80 1 0.0 5.2319152327 3.5601003777 -1.479910916
81 1 0.0 1.4843222085 5.9350002627 -3.321515087
82 1 0.0 1.7563620255 4.5502908762 -3.404187831
84 1 0.0 0.6886123531 3.6151253805 -3.416313549
1045 3 0.0 2.8069538902 2.3968752792 -1.178344596
1049 3 0.0 0.8735941412 2.5552884555 -3.421545094
1081 3 0.0 4.7824811327 4.1991171555 -2.233984379
1082 3 0.0 6.2896451684 3.7632429981 -1.527568141
1083 3 0.0 4.8781048468 3.8796087666 -0.502643977
1085 3 0.0 2.7716336574 4.1884755276 -3.386959565
382 1 0.0 0.2992437987 5.6182604274 -0.672963016
381 1 0.0 1.5795758004 6.1434204384 -0.306482539
383 1 0.0 2.6360896203 5.2503023505 -0.022402479
1055 3 0.0 6.8140025766 1.3719913434 -2.361720075
1056 3 0.0 7.4271364382 1.9835821371 -0.760107656
69 1 0.0 -9.7956541452 7.9243790589 -2.999151584
72 1 0.0 -9.3593065087 6.4560074433 -3.249233768
1058 3 0.0 -7.7862607214 7.9304352699 -1.33110571
1060 3 0.0 -7.2045608095 6.6594096156 -3.065312712
1064 3 0.0 -10.4951851032 7.9917760356 -2.162090051
1065 3 0.0 -8.9535732656 8.5806992967 -2.799464228
1066 3 0.0 -10.3337589494 8.3098136304 -3.863689478
1089 3 0.0 -7.5463157866 9.7463468796 -1.94699472
1092 3 0.0 -8.5398030833 12.2876195325 -3.164697734
1097 3 0.0 -6.7805065175 12.1149310017 -1.446171034
341 1 0.0 -7.9059423785 7.6868025531 -0.283406409
342 1 0.0 -8.2869567461 6.1968016125 -0.087918622
1361 3 0.0 -10.428192985 6.3107448966 -0.397353759
76 1 0.0 -0.246131263 7.8838024452 -3.121383408
90 1 0.0 -4.697379464 11.6837287785 -1.863590993
91 1 0.0 -6.0682327809 11.3604136284 -1.735181646
92 1 0.0 -3.6701846098 10.7043529425 -1.938509584
93 1 0.0 -6.5027562437 10.0155021999 -1.98684046
94 1 0.0 -4.1358776493 9.2563994097 -1.968049897
95 1 0.0 -5.5811519657 9.0112958988 -2.264986658
1067 3 0.0 -3.5062733498 8.5897836132 -2.512302573
1068 3 0.0 -5.8894901956 8.0206728138 -2.541728222
1072 3 0.0 -1.3303778106 8.0661809136 -2.997015967
1098 3 0.0 -2.6646419043 10.9061978034 -1.559631062
425 1 0.0 -1.9777215384 10.8427806225 -0.649471229
428 1 0.0 -1.6380286707 8.4183063246 -0.661295954
1445 3 0.0 -0.9930378626 8.7104752467 -1.426162166
1101 3 0.0 -0.9595946781 10.8772145079 -1.04673899
368 1 0.0 -4.1393673729 7.6720946121 -0.054064076
369 1 0.0 -1.8835783131 7.039047528 -0.393612846
427 1 0.0 -3.7821465753 9.0881232612 -0.275953249
1387 3 0.0 -1.0937375383 6.3687980049 -0.290185918
1437 3 0.0 -5.1517309018 12.2686722438 -5.371936735
1444 3 0.0 -4.530295728 9.8466204303 -0.073255963
1073 3 0.0 0.0886178296 8.3795465742 -4.018557543
83 1 0.0 0.1407521852 6.3867936033 -3.251455383
97 1 0.0 4.8404581316 11.860656657 -1.792800306
98 1 0.0 3.5387119169 11.4509972415 -1.885391486
99 1 0.0 6.0360057122 10.9312878204 -1.74489942
100 1 0.0 3.1503744172 10.0540889157 -1.886050804
101 1 0.0 5.5418397006 9.4521880596 -1.445167724
102 1 0.0 4.1307752504 9.0991109583 -1.707690952
1078 3 0.0 3.8767127974 8.0673056385 -1.649943295
1080 3 0.0 2.0414354314 7.9821726153 -1.34271544
1084 3 0.0 2.2978243668 6.6255813513 -3.253361672
1086 3 0.0 0.2958862616 8.3791139877 -2.32108602
1102 3 0.0 6.2035653196 8.7331427793 -1.863705657
1106 3 0.0 2.8299279039 12.2317293567 -2.00289342
1107 3 0.0 2.10969654 9.8030157111 -1.996902226
1112 3 0.0 6.4951423013 10.9690958805 -2.731740803
380 1 0.0 1.8764666794 7.6605878112 -0.326720735
1111 3 0.0 6.8389065132 11.2167949104 -0.92261521
1113 3 0.0 8.5764716184 11.2138533222 -0.207699503
85 1 0.0 -7.6698837268 14.2443813066 -3.319838126
86 1 0.0 -10.0947657574 13.753655181 -3.302151204
87 1 0.0 -8.745194467 13.3286822034 -3.234585442
105 1 0.0 -9.7016695437 17.5466601303 -3.18378929
106 1 0.0 -7.9801518796 15.6209580669 -3.378646425
107 1 0.0 -9.3269736908 16.0459310445 -3.288090531
108 1 0.0 -10.4018349969 15.1278959742 -3.33299582
1090 3 0.0 -6.6465222811 13.9022053851 -3.297091655
1091 3 0.0 -10.8699576243 13.0188637521 -3.338098368
1114 3 0.0 -8.841161866 17.8854618771 -0.049950505
1115 3 0.0 -7.0725593706 17.8287930456 -0.333844236
1116 3 0.0 -7.2162989707 16.3583450148 -3.424497692
1117 3 0.0 -11.4149467014 15.4630639944 -3.400002595
1118 3 0.0 -10.6637070283 17.6816271183 -2.680930318
1119 3 0.0 -8.9235404928 18.1202698293 -2.671499204
1120 3 0.0 -9.8260834775 17.9737095231 -4.174271255
409 1 0.0 -7.1932192078 13.6084791516 -0.128337682
410 1 0.0 -8.4880652872 13.0525189818 -0.017127935
453 1 0.0 -8.0956035687 15.8593997457 -0.038283443
455 1 0.0 -6.9769620938 15.00209982 -0.15278978
88 1 0.0 -0.6508598887 13.6808076144 -3.426131654
89 1 0.0 -4.1679460942 13.141112697 -1.746805709
109 1 0.0 -0.5764917638 17.5008059613 -2.831082826
110 1 0.0 -1.0319800055 15.0216527298 -3.235746415
1093 3 0.0 -1.0442469127 13.3500519765 -0.531080649
1094 3 0.0 -1.3971848677 12.9237812394 -3.614653603
1095 3 0.0 -4.4805142921 13.7310741657 -2.600665518
1096 3 0.0 -3.0808443182 13.1031316023 -1.740298527
1099 3 0.0 -4.5313003454 13.6577074953 -0.85912002
1121 3 0.0 -2.0711245193 15.2331875283 -3.22435168
1122 3 0.0 -1.4923591477 17.5167251445 -2.229684479
1123 3 0.0 -0.7814337134 17.9779488708 -3.788584558
1124 3 0.0 -0.7252280136 15.759126195 -0.753170484
417 1 0.0 -0.089358074 13.7546068713 -0.274147291
112 1 0.0 -0.0722002663 16.0495647711 -3.04518918
1429 3 0.0 -4.5845186303 12.7323184545 -5.177122599
1438 3 0.0 -6.3567959104 12.9416038032 -0.106365193
1492 3 0.0 -5.9723446938 15.3720477948 -0.174518608
1110 3 0.0 1.0758659235 12.3926515347 -3.559786879
476 1 0.0 0.0760336748 15.1444207785 -0.423554483
96 1 0.0 5.0962654464 13.3535991858 -2.007279318
103 1 0.0 1.692251573 14.4122248686 -3.190841126
104 1 0.0 0.7348247535 13.3925319708 -3.402883528
111 1 0.0 1.3138280608 15.7668262347 -3.023589349
1104 3 0.0 4.188990185 13.9490112444 -2.127131864
1105 3 0.0 5.7452218495 13.5013707342 -2.874440151
1108 3 0.0 5.6163664493 13.7517518004 -1.150667573
1109 3 0.0 2.7139210315 14.0816422653 -3.170215939