# LAMMPS data file written by Ovito Basic 3.0.0-dev791
1556 atoms
4 atom types
-12.85395 12.85395 xlo xhi
-48.7986 48.7986 ylo yhi
-5.99525 5.99525 zlo zhi

Atoms  # charge

1370 3 0.0255859 -9.1813965297 -42.7387703326 -2.997625
1433 3 0.0255801 -9.1813965297 -42.7387703326 0.0
1307 3 0.025584 -9.1813965297 -42.7387703326 5.99525
1496 3 0.0255782 -9.1813965297 -42.7387703326 2.997625
1494 3 0.025579 -12.8539493426 -42.7387703326 2.997625
1309 3 0.0255869 -5.5088430594 -42.7387703326 5.99525
1311 3 0.0255884 -1.8362895891 -42.7387703326 5.99525
1372 3 0.0255886 -5.5088430594 -42.7387703326 -2.997625
1374 3 0.0255909 -1.8362895891 -42.7387703326 -2.997625
1435 3 0.0255814 -5.5088430594 -42.7387703326 0.0
1437 3 0.0255833 -1.8362895891 -42.7387703326 0.0
1498 3 0.0255797 -5.5088430594 -42.7387703326 2.997625
1500 3 0.0255808 -1.8362895891 -42.7387703326 2.997625
1313 3 0.0255835 1.8362895891 -42.7387703326 -5.9952498639
1376 3 0.0255864 1.8362895891 -42.7387703326 -2.997625
1378 3 0.0255827 5.5088430594 -42.7387703326 -2.997625
1439 3 0.0255814 1.8362895891 -42.7387703326 0.0
1441 3 0.0255799 5.5088430594 -42.7387703326 0.0
1315 3 0.0255805 5.5088430594 -42.7387703326 -5.995249916
1502 3 0.0255785 1.8362895891 -42.7387703326 2.997625
1504 3 0.0255777 5.5088430594 -42.7387703326 2.997625
1368 3 0.0255856 12.85395 -42.7387703326 -2.997625
1431 3 0.0255809 12.85395 -42.7387703326 0.0
1305 3 0.0255837 12.85395 -42.7387703326 5.99525
1380 3 0.0255821 9.1813965297 -42.7387703326 -2.997625
1443 3 0.0255791 9.1813965297 -42.7387703326 0.0
1317 3 0.0255807 9.1813965297 -42.7387703326 5.99525
1506 3 0.0255777 9.1813965297 -42.7387703326 2.997625
1306 3 0.0039677 -11.0176732648 -40.8391579512 -4.4964375
1308 3 0.00395932 -7.3451069406 -40.8391677109 -4.4964375
1369 3 0.00396698 -11.0176732648 -40.8391579512 -1.4988125
1371 3 0.00395895 -7.3451069406 -40.8391677109 -1.4988125
1384 3 0.0117249 -9.1813965297 -38.4973131372 -2.997625
1447 3 0.0117627 -9.1813965297 -38.4973131372 0.0
1321 3 0.0117322 -9.1813965297 -38.4973131372 -5.9952499642
1432 3 0.00396729 -11.0176732648 -40.8391579512 1.4988125
1434 3 0.00396249 -7.3451069406 -40.8391677109 1.4988125
1495 3 0.00396799 -11.0176732648 -40.8391677109 4.4964375
1497 3 0.00396285 -7.3451069406 -40.8391579512 4.4964375
1510 3 0.0117701 -9.1813965297 -38.4973131372 2.997625
1382 3 0.0117059 -12.8539499046 -38.4973131372 -2.997625
1319 3 0.011716 -12.8539496314 -38.4973131372 -5.9952499708
1310 3 0.00396607 -3.6725534703 -40.8391677109 -4.4964375
1373 3 0.00396136 -3.6725534703 -40.8391579512 -1.4988125
1386 3 0.0117159 -5.5088430594 -38.4973131372 -2.997625
1388 3 0.0116903 -1.8362895891 -38.4973131372 -2.997625
1449 3 0.0117628 -5.5088430594 -38.4973131372 0.0
1451 3 0.0117432 -1.8362895891 -38.4973131372 0.0
1323 3 0.0117185 -5.5088430594 -38.4973131372 -5.9952499828
1325 3 0.0116963 -1.8362895891 -38.4973131372 5.99525
1436 3 0.00396389 -3.6725534703 -40.8391579512 1.4988125
1499 3 0.00396859 -3.6725534703 -40.8391677109 4.4964375
1512 3 0.0117654 -5.5088430594 -38.4973131372 2.997625
1514 3 0.0117493 -1.8362895891 -38.4973131372 2.997625
1312 3 0.00396976 0.0 -40.8391579512 -4.4964375
1438 3 0.0039643 0.0 -40.8391677109 1.4988125
1501 3 0.00397089 0.0 -40.8391677109 4.4964375
1375 3 0.00396316 0.0 -40.8391677109 -1.4988125
1314 3 0.00397536 3.6725534703 -40.8391579512 -4.4964375
1377 3 0.00396902 3.6725534703 -40.8391579512 -1.4988125
1390 3 0.011702 1.8362895891 -38.4973131372 -2.997625
1392 3 0.0117152 5.5088430594 -38.4973131372 -2.997625
1453 3 0.0117446 1.8362895891 -38.4973131372 0.0
1455 3 0.0117454 5.5088430594 -38.4973131372 0.0
1327 3 0.0117121 1.8362895891 -38.4973131372 5.99525
1329 3 0.0117225 5.5088430594 -38.4973131372 5.99525
1440 3 0.00396809 3.6725534703 -40.8391677109 1.4988125
1503 3 0.00397442 3.6725534703 -40.8391579512 4.4964375
1516 3 0.0117547 1.8362895891 -38.4973131372 2.997625
1518 3 0.0117527 5.5088430594 -38.4973131372 2.997625
1445 3 0.0117403 12.85395 -38.4973131372 0.0
1508 3 0.0117504 12.85395 -38.4973131372 2.997625
1316 3 0.00397747 7.3451069406 -40.8391579512 -4.4964375
1318 3 0.00397516 11.0176604109 -40.8391677109 -4.4964375
1379 3 0.00397169 7.3451069406 -40.8391579512 -1.4988125
1381 3 0.00397132 11.0176604109 -40.8391677109 -1.4988125
1394 3 0.0117182 9.1813965297 -38.4973131372 -2.997625
1457 3 0.0117469 9.1813965297 -38.4973131372 0.0
1331 3 0.0117241 9.1813965297 -38.4973131372 5.99525
1442 3 0.00396859 7.3451069406 -40.8391677109 1.4988125
1444 3 0.00396873 11.0176604109 -40.8391579512 1.4988125
1505 3 0.00397435 7.3451069406 -40.8391579512 4.4964375
1507 3 0.00397256 11.0176604109 -40.8391677109 4.4964375
1520 3 0.0117528 9.1813965297 -38.4973131372 2.997625
1320 3 0.0127922 -11.0176732648 -36.3391462536 -4.4964375
1322 3 0.0128357 -7.3451069406 -36.3391462536 -4.4964375
1334 3 0.0124631 -11.0176629817 -31.9105757064 -4.4964375
1336 3 0.0123107 -7.3451069406 -31.9105757064 -4.4964375
1383 3 0.0127627 -11.0176732648 -36.3391462536 -1.4988125
1385 3 0.0127909 -7.3451069406 -36.3391462536 -1.4988125
1397 3 0.0126686 -11.0176629817 -31.9105757064 -1.4988125
1398 3 0.00975041 -9.1813965297 -34.12486098 -2.997625
1399 3 0.0126241 -7.3451069406 -31.9105757064 -1.4988125
1461 3 0.00966998 -9.1813965297 -34.12486098 0.0
1335 3 0.00974128 -9.1813965297 -34.12486098 -5.9952499128
1446 3 0.0127158 -11.0176732648 -36.3391462536 1.4988125
1448 3 0.0127134 -7.3451069406 -36.3391462536 1.4988125
1460 3 0.0129559 -11.0176629817 -31.9105757064 1.4988125
1462 3 0.0131023 -7.3451069406 -31.9105757064 1.4988125
1509 3 0.012746 -11.0176732648 -36.3391462536 4.4964375
1511 3 0.0127589 -7.3451069406 -36.3391462536 4.4964375
1523 3 0.0127567 -11.0176629817 -31.9105757064 4.4964375
1524 3 0.00965937 -9.1813965297 -34.12486098 2.997625
1525 3 0.0127969 -7.3451069406 -31.9105757064 4.4964375
1324 3 0.0128267 -3.6725534703 -36.3391462536 -4.4964375
1338 3 0.0123377 -3.6725534703 -31.9105757064 -4.4964375
1339 3 0.00987963 -1.8362895891 -34.12486098 5.99525
1387 3 0.0128079 -3.6725534703 -36.3391462536 -1.4988125
1400 3 0.00975195 -5.5088430594 -34.12486098 -2.997625
1401 3 0.0125257 -3.6725534703 -31.9105757064 -1.4988125
1402 3 0.00985658 -1.8362895891 -34.12486098 -2.997625
1463 3 0.00962957 -5.5088430594 -34.12486098 0.0
1465 3 0.00968418 -1.8362895891 -34.12486098 0.0
1337 3 0.00977987 -5.5088430594 -34.12486098 5.99525
1450 3 0.0127387 -3.6725534703 -36.3391462536 1.4988125
1464 3 0.0129349 -3.6725534703 -31.9105757064 1.4988125
1513 3 0.0127585 -3.6725534703 -36.3391462536 4.4964375
1526 3 0.009658 -5.5088430594 -34.12486098 2.997625
1527 3 0.0127555 -3.6725534703 -31.9105757064 4.4964375
1528 3 0.00970696 -1.8362895891 -34.12486098 2.997625
1326 3 0.0128328 0.0 -36.3391462536 -4.4964375
1340 3 0.012167 0.0 -31.9105757064 -4.4964375
1389 3 0.0128257 0.0 -36.3391462536 -1.4988125
1403 3 0.0123193 0.0 -31.9105757064 -1.4988005095
1452 3 0.0127605 0.0 -36.3391462536 1.4988125
1466 3 0.0127396 0.0 -31.9105757064 1.4988125
1515 3 0.0127684 0.0 -36.3391462536 4.4964375
1529 3 0.0125952 0.0 -31.9105757064 4.4964375
1328 3 0.0127747 3.6725534703 -36.3391462536 -4.4964375
1342 3 0.0124555 3.6725534703 -31.9105757064 -4.4964375
1391 3 0.0127748 3.6725534703 -36.3391462536 -1.4988125
1404 3 0.00984549 1.8362638812 -34.12486098 -2.997625
1405 3 0.0125381 3.6725534703 -31.9105757064 -1.4988125
1406 3 0.00986271 5.5088430594 -34.12486098 -2.997625
1467 3 0.00969642 1.8362638812 -34.12486098 0.0
1469 3 0.00976808 5.5088430594 -34.12486098 0.0
1341 3 0.00983872 1.8362638812 -34.12486098 5.99525
1343 3 0.00986541 5.5088430594 -34.12486098 5.99525
1454 3 0.0127296 3.6725534703 -36.3391462536 1.4988125
1468 3 0.0128433 3.6725277624 -31.9105757064 1.4988125
1517 3 0.0127297 3.6725534703 -36.3391462536 4.4964375
1530 3 0.00968706 1.8362638812 -34.12486098 2.997625
1531 3 0.0127672 3.6725277624 -31.9105757064 4.4964375
1532 3 0.00977048 5.5088430594 -34.12486098 2.997625
1333 3 0.00986736 12.85395 -34.12486098 5.99525
1522 3 0.00975852 12.85395 -34.12486098 2.997625
1396 3 0.0099014 12.85395 -34.12486098 -2.997625
1459 3 0.00979241 12.85395 -34.12486098 0.0
1330 3 0.0127503 7.3451069406 -36.3391462536 -4.4964375
1332 3 0.0127695 11.0176604109 -36.3391462536 -4.4964375
1344 3 0.0125249 7.3451069406 -31.9105757064 -4.4964375
1345 3 0.00985667 9.1813965297 -34.12486098 -5.9952499861
1346 3 0.0124162 11.0176604109 -31.9105757064 -4.4964375
1393 3 0.0127568 7.3451069406 -36.3391462536 -1.4988125
1395 3 0.0127658 11.0176604109 -36.3391462536 -1.4988125
1407 3 0.0125723 7.3451069406 -31.9105757064 -1.4988125
1408 3 0.0098527 9.1813965297 -34.12486098 -2.997625
1409 3 0.0125137 11.0176604109 -31.9105757064 -1.4988125
1471 3 0.00973521 9.1813965297 -34.12486098 0.0
1456 3 0.0127325 7.3451069406 -36.3391462536 1.4988125
1458 3 0.0127385 11.0176604109 -36.3391462536 1.4988125
1470 3 0.0127756 7.3451326485 -31.9105757064 1.4988125
1472 3 0.0127468 11.0176604109 -31.9105757064 1.4988125
1519 3 0.0127265 7.3451069406 -36.3391462536 4.4964375
1521 3 0.012742 11.0176604109 -36.3391462536 4.4964375
1533 3 0.0127328 7.3451069406 -31.9105757064 4.4964375
1534 3 0.00973697 9.1813965297 -34.12486098 2.997625
1535 3 0.012655 11.0176604109 -31.9105757064 4.4964375
1348 3 0.0124908 -9.1813708218 -29.7524088228 5.9952380095
1354 3 0.00472824 -11.0176475569 -27.4105640088 -4.4964375
1356 3 0.00494644 -7.3450812327 -27.4105640088 -4.4964375
1411 3 0.0125697 -9.1813708218 -29.7524088228 -2.9976130095
1417 3 0.00204898 -11.0176089951 -27.4105640088 -1.4987525475
1418 3 0.0253408 -12.8539011144 -25.510932108 -2.997601019
1419 3 0.00134807 -7.3450812327 -27.4103688144 -1.4987045855
1420 3 0.0235494 -9.1813965297 -25.510932108 -2.9975890285
1474 3 0.0126937 -9.1813708218 -29.7524088228 1.19905e-05
1410 3 0.0118646 -12.8539442438 -29.7524088228 -2.9976130095
1473 3 0.0120483 -12.8539439116 -29.7524088228 1.19905e-05
1355 3 0.0252743 -12.8539104353 -25.5110297052 5.9952380095
1357 3 0.0243475 -9.1813965297 -25.510932108 5.9952140285
1481 3 0.0303268 -12.8537464832 -25.5106393164 2.3980999999e-05
1483 3 0.0307771 -9.1814736534 -25.5102489276 4.7962e-05
1480 3 -2.2231e-04 -11.0175678625 -27.4104664116 1.4988125
1482 3 -0.00208052 -7.3450555248 -27.4102712172 1.4988125
1537 3 0.0126242 -9.1813708218 -29.7524088228 2.9976130095
1543 3 0.00168459 -11.0176038535 -27.4105640088 4.4963775475
1544 3 0.0301238 -12.8537754835 -25.5107369136 2.997601019
1545 3 6.8698e-04 -7.3450555248 -27.4103688144 4.4963295855
1546 3 0.032388 -9.1814479455 -25.5103465248 2.997577038
1347 3 0.011951 -12.8539448614 -29.7524088228 5.9952380095
1536 3 0.0121372 -12.8539440164 -29.7524088228 2.9976130095
1349 3 0.0123497 -5.5088430594 -29.7524088228 5.9952380095
1358 3 0.0047416 -3.6725791782 -27.4105640088 -4.4964375
1412 3 0.0127019 -5.5088430594 -29.7524088228 -2.9976130095
1413 3 0.0124183 -1.8362895891 -29.7524088228 -2.9976130095
1421 3 0.00146238 -3.6726048861 -27.4104664116 -1.498716576
1422 3 0.0242726 -5.5087916436 -25.5108345108 -2.9975890285
1423 3 0.02202 -1.8363410049 -25.510932108 -2.9975890285
1475 3 0.012989 -5.5088430594 -29.7524088228 1.19905e-05
1476 3 0.0129306 -1.8362895891 -29.7524088228 1.19905e-05
1424 3 0.00362326 -2.5707899999e-05 -27.4104664116 -1.498716576
1350 3 0.0120676 -1.8362895891 -29.7524088228 5.9952380095
1359 3 0.0260577 -5.5087916436 -25.5108345108 5.995202038
1360 3 0.0252378 -1.8363667128 -25.510932108 5.9952140285
1485 3 0.0317329 -5.5087145199 -25.5101513304 4.7962e-05
1486 3 0.0287452 -1.8364438365 -25.5103465248 4.7962e-05
1484 3 -0.00126009 -3.6726048861 -27.4103688144 1.4988244905
1538 3 0.012609 -5.5088430594 -29.7524088228 2.9976130095
1539 3 0.0125608 -1.8362895891 -29.7524088228 2.9976130095
1547 3 9.3293e-04 -3.6726048861 -27.4104664116 4.496341576
1548 3 0.0332803 -5.5087145199 -25.5100537332 2.997577038
1549 3 0.0321464 -1.8364952523 -25.5102489276 2.997577038
1487 3 3.66275e-04 -2.5707899999e-05 -27.4103688144 1.4988244905
1550 3 0.00205836 -2.5707899999e-05 -27.4104664116 4.496341576
1361 3 0.0062844 0.0 -27.4105640088 -4.4964375
1352 3 0.0119461 5.5088173515 -29.7524088228 5.9952380095
1362 3 0.00437281 3.6725791782 -27.4105640088 -4.4964375
1414 3 0.0123623 1.8362638812 -29.7524088228 -2.9976130095
1415 3 0.01218 5.5088173515 -29.7524088228 -2.9976130095
1425 3 0.00206409 3.6725791782 -27.4104664116 -1.4987285665
1426 3 0.0237321 1.8363410049 -25.510932108 -2.997601019
1427 3 0.0249194 5.5087916436 -25.5108345108 -2.9975890285
1477 3 0.0130875 1.8362638812 -29.7524088228 1.19905e-05
1478 3 0.0123844 5.5088173515 -29.7524088228 1.19905e-05
1351 3 0.0122577 1.8362638812 -29.7524088228 5.9952380095
1363 3 0.024087 1.8363410049 -25.510932108 5.995226019
1364 3 0.0270872 5.5088173515 -25.5108345108 5.9952140285
1489 3 0.0258964 1.8364181286 -25.510444122 3.59715e-05
1490 3 0.0316874 5.5087145199 -25.5102489276 4.7962e-05
1488 3 -5.36572e-04 3.6726048861 -27.4103688144 1.4988244905
1540 3 0.0129668 1.8362638812 -29.7524088228 2.9976130095
1541 3 0.0121185 5.5088173515 -29.7524088228 2.9976130095
1551 3 0.00149687 3.6726048861 -27.4104664116 4.4963535665
1552 3 0.0276594 1.8364438365 -25.510444122 2.9975890285
1553 3 0.0339415 5.5087402278 -25.5101513304 2.997577038
1365 3 0.0042377 7.3450555248 -27.4105640088 -4.4964375
1366 3 0.00473882 11.0176861188 -27.4105640088 -4.4964375
1416 3 0.0121814 9.1813965297 -29.7524088228 -2.9976130095
1428 3 0.00297901 7.345004109 -27.4104664116 -1.4987525475
1429 3 0.00398099 11.0177118267 -27.4105640088 -1.498764538
1430 3 0.0240476 9.1813708218 -25.5110297052 -2.9976130095
1479 3 0.0126619 9.1813965297 -29.7524088228 1.19905e-05
1353 3 0.0120793 9.1813965297 -29.7524088228 5.9952380095
1367 3 0.0253953 9.1813451139 -25.5110297052 5.9952380095
1493 3 0.0231273 9.1812936981 -25.510932108 2.3980999999e-05
1491 3 0.00117242 7.3449526932 -27.4104664116 1.4988244905
1492 3 0.00227799 11.0177118267 -27.4104664116 1.4988125
1542 3 0.0125502 9.1813965297 -29.7524088228 2.9976130095
1554 3 0.00185853 7.345004109 -27.4104664116 4.4963775475
1555 3 0.00314976 11.0176861188 -27.4105640088 4.496389538
1556 3 0.0256502 9.1812422823 -25.5108345108 2.9976130095
1080 2 0.0651186 -6.9258625074 -18.907505556 -1.535191677
338 1 -0.110731 -9.0308253594 -19.2821812068 1.7250612445
339 1 -0.123431 -10.2862680851 -19.8274567632 1.2662807335
340 1 -0.121886 -11.4560418049 -18.9915367452 1.188450398
899 2 0.0938377 -7.0155316626 -19.0642466592 1.928144343
900 2 0.0635582 -8.1797653299 -19.9626288852 1.773850589
901 2 0.0420552 -12.3979329866 -19.4148158016 0.8410736225
902 2 0.0336215 -10.332017864 -20.8689164844 0.976650206
502 1 -0.102335 -4.9294127013 -19.441850226 -0.8740714785
503 1 -0.0848321 -3.5853265656 -18.9595248636 -0.6758445325
504 1 -0.108411 -5.9355170757 -18.5142864372 -1.3170005485
1078 2 0.087554 -2.8178686269 -19.6543193304 -0.322448526
1079 2 0.0541793 -5.1659510892 -20.4852618912 -0.7035425875
332 1 -0.187116 -3.5665855065 -19.8456098424 2.3149458825
333 1 0.0394169 -3.1500661107 -18.5056002864 1.6763318525
334 1 -0.144403 -5.1151779867 -19.9882969488 2.4406542845
335 1 -0.0956766 -5.9383449447 -18.9351255636 1.9693796725
336 1 -0.138062 -0.8883364845 -19.492112784 1.038113509
337 1 0.00559365 -1.8099132837 -18.3412466016 1.236124626
895 2 0.0590357 -2.9727587244 -20.7646826748 2.056634541
896 2 0.0703385 -3.4505400459 -19.6327503492 3.4284076935
897 2 0.0327229 -5.5259645208 -20.7928882656 3.03095859
898 2 0.0499095 -1.2212023737 -20.3784905544 0.520195852
499 1 -0.0963882 4.3676436705 -19.3719706308 -0.8300183815
500 1 -0.0750851 5.6574347214 -18.8085419952 -0.50791758
501 1 -0.109828 3.3520016652 -18.5154576036 -1.390586247
1075 2 0.0800215 6.4124243286 -19.4492676132 -0.0497725655
1076 2 0.0581107 2.3976730014 -18.9569873364 -1.6734781135
1077 2 0.0521799 4.168278906 -20.4214333224 -0.640652415
328 1 -0.128371 6.1415658942 -19.5182688336 2.1583739335
329 1 -0.116344 4.752362394 -19.9150990488 2.2020673155
330 1 -0.0876121 3.720190209 -18.9313192728 2.0444641835
331 1 -0.124949 0.4174191723 -19.4232091608 1.600683788
892 2 0.0894032 2.6903060271 -19.2841331508 2.0029290915
893 2 0.0497294 1.0744359726 -20.2911410604 1.515886972
894 2 0.0349711 4.4984454657 -20.9603650608 2.296300655
890 2 0.0351045 6.9174046083 -20.275330314 2.190040844
489 1 -0.100453 -9.1876949652 -12.8817568308 -0.1841620895
490 1 0.0689244 -7.8216028671 -12.4320289332 -0.0881181845
491 1 -0.07993 -8.3591293482 -15.217355424 -0.076883086
492 1 -0.0934802 -9.4405835775 -14.2756400412 -0.168202734
493 1 -0.127519 -10.0649256369 -13.241012124 -2.8336788935
494 1 0.0687933 -9.0307739436 -12.2471798364 -2.852348102
495 1 -0.104098 -7.2983956863 -13.9913393976 -2.87795981
496 1 -0.102607 -7.6367373582 -12.615902058 -2.9419770895
497 1 -0.0998762 -8.3189221926 -14.9965905576 -2.7881149935
498 1 -0.114528 -9.7141413414 -14.617132644 -2.818367025
1068 2 0.107313 -8.5548435909 -16.2794081544 -0.089041453
1071 2 0.0511523 -11.1027355644 -12.9276275148 -2.7282823985
1072 2 0.0675999 -8.050943043 -16.0355127516 -2.633809249
1073 2 0.0513068 -10.4742391083 -15.3903952596 -2.735392765
1074 2 0.0709655 -10.4601331836 -14.646411804 -0.263191475
316 1 -0.1013 -7.4421028473 -14.4592203744 2.7094812945
317 1 -0.0858871 -8.505715794 -13.4939840664 2.615871461
318 1 -0.102177 -6.7283744196 -13.3505161824 0.033621362
320 1 -0.0779204 -8.5634300295 -12.624685806 5.303038435
321 1 -0.100071 -6.9990786066 -14.7403003104 0.0119065665
322 1 -0.122855 -8.927068275 -17.9156252124 2.0961912005
323 1 0.0491418 -10.1226912882 -17.1222575736 2.055435491
324 1 -0.356991 -10.081095906 -15.6632770308 2.6100320875
325 1 -0.138237 -11.3846715329 -17.6272254864 1.56883702
881 2 0.0848771 -9.5576059383 -13.7632547412 2.5816385835
882 2 0.0819493 -8.7276006789 -13.693863132 5.350257024
884 2 0.0856961 -7.6451181336 -15.5126845512 2.6373944085
885 2 0.0798782 -7.9879329801 -17.4696060084 2.4337237755
886 2 0.113946 -9.9855910575 -14.9458400136 1.7539583495
887 2 0.0957855 -9.2131457862 -15.5386454064 3.309066247
888 2 0.0627007 -11.0034516546 -15.401326146 3.182062871
889 2 0.0508672 -12.2502333888 -16.968737178 1.5304794105
880 2 0.0839124 -6.395611362 -12.7573204008 5.6382088815
482 1 -0.120568 -0.140622213 -14.552718492 -0.168442544
483 1 -0.150314 -0.9874918548 -13.190749566 -2.8206811915
484 1 -0.109032 -3.2945959245 -17.576767734 -0.8196106275
485 1 -0.135194 -5.6452748847 -17.1343596264 -1.4875534205
486 1 0.0245037 -4.3185929973 -16.6498871256 -1.203678333
487 1 -0.368545 -3.9997379136 -15.1273708056 -1.36667719
488 1 -0.117377 -0.6654489915 -14.569798002 -2.7585704015
1057 2 0.0984976 -1.2818730177 -12.475850076 -0.1084300915
1058 2 0.12067 -0.6134419098 -12.6309320268 -1.1017470925
1059 2 0.081122 -1.9918995078 -12.8378380908 -2.553185127
1060 2 0.0943286 -4.0717457415 -14.5588671156 -0.3921493025
1061 2 0.10032 -2.2955355147 -17.213218164 -0.5777622425
1062 2 0.0865512 -6.3997760418 -16.43292855 -1.843251603
1063 2 0.0870731 -2.9650206465 -14.9876116152 -1.749126178
1064 2 0.086858 -4.698632883 -14.6338217652 -2.0824980495
1065 2 0.0678699 -1.4294877795 -15.3192469008 -2.5503913405
1066 2 0.0803889 -1.1487318036 -14.967506592 -0.2177115085
1067 2 0.0714316 -6.2530096407 -14.2883276772 -2.8373959485
305 1 -0.135656 -6.0688896609 -14.045701038 2.8659333385
306 1 -0.132653 -5.7338128923 -12.6662622132 2.8741348405
307 1 -0.134583 -1.7124546348 -13.0857349788 2.8660052815
308 1 -0.151674 -2.6117426847 -13.7505671052 3.791204252
309 1 -0.145018 -3.3345460011 -12.9376800264 4.749964632
310 1 -0.0563388 -4.0204070652 -17.2965661728 2.044332288
311 1 -0.338877 -3.8676764313 -15.785371128 1.423176426
312 1 -0.0771228 -5.4714637728 -17.65533348 1.6544371995
313 1 0.0231405 -0.0400786161 -17.0631136704 2.142606426
314 1 -0.137357 -1.2479642976 -16.9939172556 1.3806701035
864 2 0.0850576 -3.5901339429 -12.92674914 0.618158237
865 2 0.113738 -4.7218728246 -12.3180354036 3.0704672875
866 2 0.0930316 -5.7177711627 -12.970179894 0.1714761405
867 2 0.088028 -1.2714356103 -13.6242763284 2.007473491
868 2 0.0656324 -4.067503938 -13.4700727524 5.3609165785
869 2 0.137459 -1.2097623582 -12.3077876976 5.3572714665
870 2 0.0785762 -5.312280456 -14.8121318496 2.9753826225
871 2 0.102165 -6.1911564333 -15.4546142172 0.0883819755
872 2 0.123737 -3.3512561361 -15.773171478 0.431058475
873 2 0.0879308 -3.3186585189 -15.1235645148 2.1165510695
874 2 0.104422 -4.8683564388 -15.3474524916 1.277156117
875 2 0.0988131 -6.1447793817 -16.878947754 1.334590612
876 2 0.06691 -2.7796666875 -14.824526694 3.711275579
877 2 0.0970765 -0.8554046646 -15.1318602768 2.904482796
878 2 0.0683689 -3.9693768837 -17.079022014 3.1516669535
879 2 0.0962264 -1.7745135054 -16.0641087312 1.204541649
472 1 0.0328979 1.3624929921 -12.5426065608 -0.196236523
473 1 -0.108796 0.1225238514 -13.1994357168 -0.534152794
474 1 0.0532046 0.0840391251 -12.2405432268 -3.0340641295
475 1 -0.102115 1.7728681998 -14.0010991176 -3.015874541
476 1 -0.101265 1.4816234007 -12.6131693364 -3.0643521325
477 1 -0.100768 0.7209266397 -14.9710200912 -2.886497046
478 1 -0.109435 5.9086266123 -17.4221737692 -0.6836623385
479 1 -0.12683 3.5896712007 -17.127820614 -1.57195455
480 1 0.0401555 4.8643974222 -16.5706381992 -1.184757324
481 1 -0.355423 5.1249212808 -15.0386549508 -1.330513842
1051 2 0.0709907 2.8059144534 -14.336540694 -3.054675799
1052 2 0.0664859 0.9628893945 -16.02058038 -2.8212567355
1053 2 0.0993766 4.8661198515 -14.469272886 -0.3927728085
1054 2 0.0881516 2.8290001476 -16.4681611392 -1.9906508195
1055 2 0.0671375 6.1971720819 -14.835262386 -1.5510790895
1056 2 0.0844618 4.5061835436 -14.62006056 -2.166827236
290 1 -0.124491 2.3621960994 -14.520999402 2.834722067
291 1 -0.131385 3.715819866 -14.040333192 2.7943260725
292 1 -0.099304 1.2605097528 -13.584066282 2.8782355915
293 1 -0.147356 3.9637211457 -12.6445956348 2.7565320165
294 1 -0.0986512 2.4777016941 -13.3822352724 0.095372437
295 1 -0.0834099 2.2290805932 -12.2229757308 5.3534105255
296 1 -0.0953407 0.9046095852 -12.7924553928 5.2972710045
297 1 -0.135311 6.1390979358 -12.5686650132 4.282742809
298 1 -0.105442 1.000808547 -15.3907856484 0.066691161
299 1 -0.0958076 2.3144051133 -14.792319618 0.0939215865
300 1 0.0641636 5.4206135466 -17.1760336308 1.9311779395
301 1 -0.338507 5.8928162538 -15.6939225516 1.8248222045
302 1 -0.0956269 4.0265769612 -17.5517828508 1.9123288735
303 1 -0.357667 0.1253003046 -15.5939830188 2.6755721605
327 1 -0.141402 0.8238867792 -18.2074408404 2.2631229415
848 2 0.0879944 5.9176757931 -12.931629 0.4699916285
849 2 0.105218 0.2455361529 -13.88808156 3.1043284595
850 2 0.117759 4.958025594 -12.2500101552 2.9194589305
851 2 0.0985674 3.4200504765 -12.8895646068 0.3035155265
852 2 0.0907303 3.0807319044 -12.8840015664 5.213805134
853 2 0.0851772 0.7408502622 -13.8482619024 5.114236022
854 2 0.0797189 5.1731493012 -12.9747669624 4.59284112
855 2 0.086918 2.1992594292 -15.5841257016 2.831556575
856 2 0.0939083 4.5175207275 -14.748400878 2.834913915
857 2 0.11568 3.1737945024 -15.435485166 0.205924847
858 2 0.0849732 5.8802450907 -15.2297502684 2.8520243585
859 2 0.113217 5.2429719576 -15.0907718556 1.148977672
860 2 0.0979738 3.2536689477 -16.7987228556 1.7739345225
861 2 0.149639 0.5798159766 -14.9755095624 1.8568368395
862 2 0.122468 0.8662276905 -16.4432738532 0.248730932
863 2 0.0853379 0.7546811124 -15.5689005384 3.604608091
891 2 0.0788261 1.7975477838 -18.1080868908 2.7582826295
289 1 -0.0970585 1.4710574538 -12.2093121228 2.672394678
1050 2 0.0705924 6.8553714456 -16.9777161204 -0.370842184
287 1 -0.122024 8.3617772619 -12.906253728 3.2158161285
288 1 -0.122292 7.136255961 -13.4609962128 3.743745853
326 1 -0.123288 6.4715524986 -18.149663298 1.9969098605
843 2 0.0604905 8.352753789 -12.3513160488 0.274654393
844 2 0.0464238 9.1061237985 -13.5769416864 2.794074272
845 2 0.0557797 7.5055756524 -17.8279829268 1.870565962
846 2 0.0852881 6.9347831487 -15.631655538 1.439963126
847 2 0.0645823 6.9804917949 -14.5315398996 3.7412158575
470 1 -0.351379 -7.4989173063 -10.9091222244 -0.0872548685
471 1 -0.345726 -9.3676502652 -10.7494532052 -2.5634849665
1043 2 0.102271 -6.7130268033 -6.7621195992 -1.221616121
1044 2 0.0821401 -8.0327675577 -6.2386082184 -2.6714474285
1045 2 0.0956505 -9.3387288777 -10.1321509152 -3.50314448
1046 2 0.105545 -8.6363633418 -10.3064595144 -1.845505817
1047 2 0.0783091 -10.3736775159 -10.648342506 -2.0918986015
1048 2 0.110632 -7.0625514117 -10.5840259512 -1.0607875445
1049 2 0.0800103 -7.3471378647 -9.1184087988 -1.9350628615
1069 2 0.0863668 -6.8718502095 -11.8444937892 -2.9404662865
1070 2 0.0843568 -9.984177123 -12.1506562056 -0.3049543865
273 1 -0.318593 -6.8730327729 -10.2300409068 3.0848798685
274 1 0.0387404 -6.8124135447 -11.7395767992 2.7051167525
275 1 -0.141915 -9.0770738715 -8.19572487 1.911621434
276 1 0.0399352 -10.285717936 -7.4252925732 1.9681086795
278 1 -0.154373 -11.5702157303 -8.0008232616 1.6889938205
279 1 -0.124626 -7.0352496219 -10.6738153752 5.494167005
280 1 0.0137538 -8.1276811245 -9.7901703264 5.14752165
281 1 -0.35701 -7.7996483205 -8.3146958568 4.7306958985
282 1 -0.112743 -9.6277370895 -11.7451398396 4.8931671735
283 1 -0.134978 -9.4047981807 -10.3480359216 4.7528543425
284 1 -0.124878 -9.1890574839 -9.5787747912 1.634664865
285 1 -0.127384 -10.4669406355 -10.200859344 1.383439909
286 1 -0.135992 -11.6447429324 -9.377626962 1.350657882
315 1 -0.0858199 -8.1938275512 -12.1261593084 2.558389004
319 1 -0.0796416 -7.240372956 -12.0799958328 5.518915397
827 2 0.0873991 -6.7100961027 -8.095199754 4.787207125
828 2 0.0879799 -8.3420850105 -7.5752994696 5.353926117
829 2 0.108936 -8.0951092152 -8.099103642 3.663001826
830 2 0.0805961 -8.1157012431 -7.733114142 2.1447767065
832 2 0.0510345 -12.4513617152 -7.3694669748 1.744473864
833 2 0.114068 -6.8754236076 -9.5219732208 2.2454729255
834 2 0.111467 -8.9748335532 -11.3767104096 2.537309705
835 2 0.156557 -7.8528893814 -10.0673463744 3.526549936
836 2 0.107467 -6.7540051959 -10.7001666192 0.7173316625
837 2 0.0978494 -10.1557002318 -9.7120925664 4.2705724515
838 2 0.101775 -8.2964020722 -10.1878789164 1.622506498
839 2 0.0714412 -10.5300509592 -11.2717934196 1.222671285
840 2 0.0501442 -12.5991206983 -9.823646166 1.0818428625
841 2 0.0979773 -8.354296263 -6.725911038 0.3607581735
842 2 0.115408 -8.3940149685 -10.2880136436 0.0806600935
883 2 0.0629321 -10.594336134 -12.180618546 4.629268259
814 2 0.0943397 -6.4893937812 -9.323460516 0.86931125
458 1 -0.141837 -1.9646234259 -11.670673176 -0.2400138385
459 1 -0.0628781 -3.7951030296 -9.4497512928 -0.172135618
460 1 0.00594651 -2.1295396044 -9.0591672984 -0.033285628
461 1 -0.317579 -1.8698126907 -7.626733194 -0.9626812735
462 1 -0.142152 -1.6182094734 -10.3839516912 -0.731588367
463 1 -0.149508 -3.5809819305 -7.9939914576 -2.1064790495
464 1 -0.141644 -5.9639243052 -7.4844364764 -1.5376257485
465 1 -7.72207e-05 -4.6134883182 -7.05627756 -1.698670154
466 1 -0.352658 -0.2911419675 -10.7372535552 -2.882612124
467 1 -0.143872 -5.3184246441 -9.7859736468 -2.141191547
468 1 -0.0684698 -3.9355709952 -9.4162754532 -1.853779262
469 1 -0.124439 -6.2963017443 -8.8372312656 -1.8624244125
1034 2 0.0967541 -1.9863466014 -6.7217143584 -0.3189113285
1035 2 0.0933903 -0.8556360357 -7.639908816 -1.416485727
1036 2 0.100575 -0.7352973558 -10.0283074944 -1.261424581
1038 2 0.142031 -2.5680649626 -7.626733194 -1.869630703
1039 2 0.102169 -0.3963644022 -10.1741177112 -3.831876028
1040 2 0.107353 -1.319843586 -10.7862473496 -2.500834604
1041 2 0.0790468 -5.5583564748 -10.810841844 -2.377332454
1042 2 0.0967951 -3.2360076204 -10.1980290252 -2.22711547
256 1 -0.0205065 -4.3060475421 -7.0270959972 2.2836986395
257 1 -0.162252 -5.5948359849 -7.5993083808 1.714689462
258 1 -0.00103326 -0.1888245255 -7.2864117576 2.445174703
260 1 -0.107817 -1.5896479965 -7.64186076 1.906081823
261 1 -0.133295 -3.351538923 -11.9391630732 0.2104212845
262 1 -0.0953386 -4.2275356155 -10.8621779712 0.1303247445
263 1 -0.116518 -1.3652951532 -11.7159582768 3.1328418685
264 1 0.0145982 -2.0924173968 -10.9066822944 4.110775058
265 1 -0.329322 -1.7627392872 -9.3520564956 4.228977407
266 1 -0.162413 -3.1651309401 -11.5207638768 4.8513922715
267 1 -0.202162 -3.4356551718 -10.3294924536 2.259465839
268 1 -0.120351 -3.1093190892 -7.7252087688 2.5413984655
269 1 -0.0888739 -4.72511202 -9.7990516716 2.331001162
270 1 -0.152007 -5.643655287 -8.9301438 1.448500362
271 1 -0.135905 -0.4200413781 -9.82559811 1.390298475
272 1 -0.00551917 -1.4677154268 -8.913552276 1.029672197
304 1 -0.0750508 -0.2024497125 -11.9013929568 5.4448500785
808 2 0.0995146 -4.1836522302 -7.1482141224 0.245253687
809 2 0.0914404 -6.3514708977 -6.9195438828 1.3740033855
810 2 0.109756 -2.071285503 -6.7797846924 1.422648844
811 2 0.109298 -5.2414551915 -11.0486862204 0.4594639695
812 2 0.145243 -4.3406503755 -8.6242741752 0.3258178565
813 2 0.100511 -6.1180431657 -9.9351021684 3.8549577405
815 2 0.0715599 -6.0139518786 -10.279913076 5.478051773
816 2 0.108755 -0.5871941439 -11.2707198504 2.567477803
817 2 0.138072 -0.7111062219 -9.1212391176 3.925186099
818 2 0.0684173 -1.9481960778 -8.9290702308 5.268265985
819 2 0.148601 -2.3849732988 -8.787651888 3.5904233295
820 2 0.0783148 -3.8096022852 -10.8824781888 5.4695265275
821 2 0.0951062 -0.8243495214 -9.8770318344 5.9053572215
822 2 0.149912 -3.2090400333 -11.215382238 2.8034628335
823 2 0.103525 -5.1563620425 -9.934906974 3.313095055