# LAMMPS data file written by Ovito Basic 3.0.0-dev791
1610 atoms
4 atom types
-12.83395 12.83395 xlo xhi
-40.52315 40.52315 ylo yhi
-5.5445 5.5445 zlo zhi

Atoms  # charge

225 2 0.0 -12.8339498032 -34.50782255 -5.5444999445
226 2 0.0 -11.0005278381 -32.7900947746 -4.158375
227 2 0.0 -9.1671108097 -34.507822619 -5.5444999341
228 2 0.0 -7.3336783806 -32.7900947746 -4.158375
230 2 0.0 -11.0005278381 -29.3449260667 -4.158375
232 2 0.0 -7.3336783806 -29.3449260667 -4.158375
233 2 0.0 -12.8339498119 -34.507822688 -2.77225
234 2 0.0 -11.0005278381 -32.7900947746 -1.386125
235 2 0.0 -9.1671108097 -34.5078227571 -2.77225
236 2 0.0 -7.3336783806 -32.7900947746 -1.386125
238 2 0.0 -11.0005278381 -29.3449260667 -1.386125
239 2 0.0 -9.1671108097 -31.0708142861 -2.77225
240 2 0.0 -7.3336783806 -29.3449260667 -1.386125
351 2 0.0 -12.8339497825 -34.5078224809 0.0
353 2 0.0 -9.1671108097 -34.50782255 0.0
231 2 0.0 -9.1671108097 -31.0708142861 5.5445
352 2 0.0 -11.0005278381 -32.7900947746 1.386125
354 2 0.0 -7.3336783806 -32.7900947746 1.386125
356 2 0.0 -11.0005278381 -29.3449329713 1.386125
357 2 0.0 -9.1671108097 -31.0708142861 0.0
358 2 0.0 -7.3336783806 -29.3449329713 1.386125
359 2 0.0 -12.8339497735 -34.5078223428 2.77225
360 2 0.0 -11.0005278381 -32.7900947746 4.158375
361 2 0.0 -9.1671108097 -34.5078224119 2.77225
362 2 0.0 -7.3336783806 -32.7900947746 4.158375
364 2 0.0 -11.0005278381 -29.3449260667 4.158375
365 2 0.0 -9.1671108097 -31.0708142861 2.77225
366 2 0.0 -7.3336783806 -29.3449329713 4.158375
241 2 0.0 -5.5002716194 -34.507822688 -5.544499898
242 2 0.0 -3.6668391903 -32.7900947746 -4.158375
243 2 0.0 -1.8334324291 -34.5078233785 -5.5444999347
245 2 0.0 -3.6668391903 -29.3449260667 -4.158375
247 2 0.0 -5.5002716194 -34.5078228261 -2.77225
248 2 0.0 -3.6668391903 -32.7900947746 -1.386125
249 2 0.0 -1.8334324291 -34.5078234476 -2.77225
250 2 0.0 -5.5002716194 -31.0708142861 -2.77225
251 2 0.0 -3.6668391903 -29.3449260667 -1.386125
252 2 0.0 -1.8334324291 -31.0708142861 -2.77225
257 2 0.0 0.0 -29.3449260667 -4.158375
265 2 0.0 0.0 -29.3449260667 -1.386125
367 2 0.0 -5.5002716194 -34.507822619 0.0
369 2 0.0 -1.8334324291 -34.5078232404 0.0
244 2 0.0 -5.5002716194 -31.0708142861 5.5445
246 2 0.0 -1.8334324291 -31.0708142861 5.5445
368 2 0.0 -3.6668391903 -32.7900947746 1.386125
370 2 0.0 -5.5002716194 -31.0708142861 0.0
371 2 0.0 -3.6668391903 -29.3449329713 1.386125
372 2 0.0 -1.8334324291 -31.0708142861 0.0
373 2 0.0 -5.5002716194 -34.5078224809 2.77225
374 2 0.0 -3.6668391903 -32.7900947746 4.158375
375 2 0.0 -1.8334324291 -34.5078231714 2.77225
376 2 0.0 -5.5002716194 -31.0708142861 2.77225
377 2 0.0 -3.6668391903 -29.3449329713 4.158375
378 2 0.0 -1.8334324291 -31.0708142861 2.77225
383 2 0.0 0.0 -29.3449260667 1.386125
391 2 0.0 0.0 -29.3449260667 4.158375
253 2 0.0 0.0 -32.7900947746 -4.158375
261 2 0.0 0.0 -32.7900947746 -1.386125
379 2 0.0 0.0 -32.7900947746 1.386125
387 2 0.0 0.0 -32.7900947746 4.158375
254 2 0.0 1.8334324291 -34.5078233785 -5.5444999722
255 2 0.0 3.6668391903 -32.7900947746 -4.158375
256 2 0.0 5.5002716194 -34.5078228952 -5.5444999351
259 2 0.0 3.6668391903 -29.3449260667 -4.158375
262 2 0.0 1.8334324291 -34.5078234476 -2.77225
263 2 0.0 3.6668391903 -32.7900947746 -1.386125
264 2 0.0 5.5002716194 -34.5078229642 -2.77225
266 2 0.0 1.8334324291 -31.0708142861 -2.77225
267 2 0.0 3.6668391903 -29.3449260667 -1.386125
268 2 0.0 5.5002716194 -31.0708142861 -2.77225
380 2 0.0 1.8334324291 -34.5078232404 0.0
382 2 0.0 5.5002716194 -34.5078227571 0.0
258 2 0.0 1.8334324291 -31.0708142861 5.5445
260 2 0.0 5.5002716194 -31.0708142861 5.5445
381 2 0.0 3.6668391903 -32.7900947746 1.386125
384 2 0.0 1.8334324291 -31.0708142861 0.0
385 2 0.0 3.6668391903 -29.3449329713 1.386125
386 2 0.0 5.5002716194 -31.0708142861 0.0
388 2 0.0 1.8334324291 -34.5078231714 2.77225
389 2 0.0 3.6668391903 -32.7900947746 4.158375
390 2 0.0 5.5002716194 -34.507822688 2.77225
392 2 0.0 1.8334324291 -31.0708142861 2.77225
393 2 0.0 3.6668391903 -29.3449260667 4.158375
394 2 0.0 5.5002716194 -31.0708142861 2.77225
237 2 0.0 12.83395 -31.0708142861 -2.77225
229 2 0.0 12.83395 -31.0708142861 5.5445
355 2 0.0 12.83395 -31.0708142861 0.0
363 2 0.0 12.83395 -31.0708142861 2.77225
269 2 0.0 7.3336783806 -32.7900947746 -4.158375
270 2 0.0 9.1671108097 -34.507822688 -5.544499903
271 2 0.0 11.0005175709 -32.7900947746 -4.158375
272 2 0.0 7.3336783806 -29.3449260667 -4.158375
274 2 0.0 11.0005175709 -29.3449260667 -4.158375
275 2 0.0 7.3336783806 -32.7900947746 -1.386125
276 2 0.0 9.1671108097 -34.5078227571 -2.77225
277 2 0.0 11.0005175709 -32.7900947746 -1.386125
278 2 0.0 7.3336783806 -29.3449329713 -1.386125
279 2 0.0 9.1671108097 -31.0708142861 -2.77225
280 2 0.0 11.0005175709 -29.3449260667 -1.386125
396 2 0.0 9.1671108097 -34.50782255 0.0
273 2 0.0 9.1671108097 -31.0708142861 5.5445
395 2 0.0 7.3336783806 -32.79008787 1.386125
397 2 0.0 11.0005175709 -32.7900947746 1.386125
398 2 0.0 7.3336783806 -29.3449329713 1.386125
399 2 0.0 9.1671108097 -31.0708142861 0.0
400 2 0.0 11.0005175709 -29.3449329713 1.386125
401 2 0.0 7.3336783806 -32.7900947746 4.158375
402 2 0.0 9.1671108097 -34.5078224119 2.77225
403 2 0.0 11.0005175709 -32.7900947746 4.158375
404 2 0.0 7.3336783806 -29.3449329713 4.158375
405 2 0.0 9.1671108097 -31.0708142861 2.77225
406 2 0.0 11.0005175709 -29.3449329713 4.158375
281 2 0.0 -12.8339495018 -27.618706425 -5.5444986183
282 2 0.0 -11.0005278381 -25.8913268055 -4.158375
283 2 0.0 -9.1671108097 -27.618706425 -5.5444984984
284 2 0.0 -7.3336783806 -25.8912577592 -4.158375
287 2 0.0 -12.833949544 -27.6186995204 -2.77225
288 2 0.0 -11.0005278381 -25.8913268055 -1.386125
289 2 0.0 -9.1671108097 -27.6186995204 -2.77225
290 2 0.0 -7.3336783806 -25.8912577592 -1.386125
292 2 0.0 -9.1671108097 -24.1587479996 -2.77225
407 2 0.0 -12.8339492684 -27.618706425 0.0
409 2 0.0 -9.1671108097 -27.618706425 0.0
286 2 0.0 -9.1671108097 -24.1586789533 5.5445
408 2 0.0 -11.0005278381 -25.8912577592 1.386125
410 2 0.0 -7.3336783806 -25.8912577592 1.386125
412 2 0.0 -9.1671108097 -24.1586789533 0.0
413 2 0.0 -12.8339493148 -27.618706425 2.77225
414 2 0.0 -11.0005278381 -25.8912577592 4.158375
415 2 0.0 -9.1671108097 -27.618706425 2.77225
416 2 0.0 -7.3336783806 -25.8912577592 4.158375
418 2 0.0 -9.1671108097 -24.1586789533 2.77225
323 2 0.0 -11.0005458056 -22.4668374644 -4.158297377
324 2 0.0 -7.3337040485 -22.4670446033 -4.158352822
327 2 0.0 -11.000540672 -22.4669065107 -1.386202623
328 2 0.0 -7.3337040485 -22.4671136496 -1.386158267
449 2 0.0 -11.0005278381 -22.4671826959 1.386113911
450 2 0.0 -7.3336783806 -22.4671826959 1.386125
453 2 0.0 -11.0005304049 -22.4671136496 4.158397178
454 2 0.0 -7.3336783806 -22.4671826959 4.158386089
291 2 0.0 -12.8339487866 -24.1587479996 -2.77225
293 2 0.0 -5.5002716194 -27.618706425 -5.5444978517
294 2 0.0 -3.6668391903 -25.8913268055 -4.158375
295 2 0.0 -1.8334324291 -27.6186995204 -5.5444986217
298 2 0.0 -5.5002716194 -27.6186995204 -2.77225
299 2 0.0 -3.6668391903 -25.8912577592 -1.386125
300 2 0.0 -1.8334324291 -27.6186995204 -2.77225
301 2 0.0 -5.5002716194 -24.1587479996 -2.77225
302 2 0.0 -1.8334324291 -24.1587479996 -2.77225
419 2 0.0 -5.5002716194 -27.618706425 0.0
421 2 0.0 -1.8334324291 -27.618706425 0.0
422 2 0.0 -5.5002716194 -24.158609907 1.1089e-05
296 2 0.0 -5.5002716194 -24.1586789533 5.544488911
297 2 0.0 -1.8334324291 -24.1587479996 -5.5444959386
420 2 0.0 -3.6668391903 -25.8912577592 1.386125
423 2 0.0 -1.8334324291 -24.1586789533 1.1089e-05
424 2 0.0 -5.5002716194 -27.6187133296 2.77225
425 2 0.0 -3.6668391903 -25.8912577592 4.158375
426 2 0.0 -1.8334324291 -27.618706425 2.77225
427 2 0.0 -5.5002716194 -24.158609907 2.77225
428 2 0.0 -1.8334324291 -24.1586789533 2.77225
331 2 0.0 -3.6667878545 -22.4670446033 -4.158352822
334 2 0.0 -3.6668135224 -22.4671136496 -1.386158267
457 2 0.0 -3.6668391903 -22.4671826959 1.386125
460 2 0.0 -3.6668135224 -22.4671136496 4.158397178
303 2 0.0 0.0 -25.8913268055 -4.158375
309 2 0.0 0.0 -25.8913268055 -1.386125
463 2 0.0 0.0 -22.4671136496 1.386125
467 2 0.0 2.5667900001e-05 -22.4670446033 4.158452623
304 2 0.0 1.8334324291 -27.6186995204 -5.5444985433
305 2 0.0 3.6668391903 -25.8913268055 -4.158375
306 2 0.0 5.5002716194 -27.6186995204 -5.5444980066
310 2 0.0 1.8334324291 -27.6187271389 -2.77225
311 2 0.0 3.6668391903 -25.8912577592 -1.386125
312 2 0.0 5.5002716194 -27.6186995204 -2.77225
313 2 0.0 1.8335094328 -24.157919444 -2.772194555
314 2 0.0 5.5002972873 -24.1587479996 -2.77225
430 2 0.0 1.8334324291 -27.6186995204 0.0
432 2 0.0 5.5002716194 -27.618706425 0.0
307 2 0.0 1.8334324291 -24.1587479996 -5.5444991891
308 2 0.0 5.5002716194 -24.1587479996 5.5445
429 2 0.0 0.0 -25.8912577592 1.386125
431 2 0.0 3.6668391903 -25.8912577592 1.386125
433 2 0.0 1.8334324291 -24.1586789533 2.2177999999e-05
434 2 0.0 5.5002716194 -24.1586789533 1.1089e-05
435 2 0.0 0.0 -25.8913268055 4.158375
436 2 0.0 1.8334324291 -27.6186995204 2.77225
437 2 0.0 3.6668391903 -25.8912577592 4.158375
438 2 0.0 5.5002716194 -27.618706425 2.77225
439 2 0.0 1.8334324291 -24.1586789533 2.77225
440 2 0.0 5.5002716194 -24.1586789533 2.772238911
337 2 0.0 3.336827e-04 -22.4664922329 -4.158131042
338 2 0.0 3.667172873 -22.4672517422 -4.158441534
341 2 0.0 7.70037e-05 -22.4670446033 -1.386080644
342 2 0.0 3.667429552 -22.4675969737 -1.385714707
464 2 0.0 3.6668391903 -22.4671826959 1.386136089
468 2 0.0 3.6668391903 -22.4671136496 4.158397178
315 2 0.0 7.3336783806 -25.8913268055 -4.158375
316 2 0.0 9.1671108097 -27.618706425 -5.5444981901
317 2 0.0 11.0005175709 -25.8913268055 -4.158375
319 2 0.0 7.3336783806 -25.8912577592 -1.386125
320 2 0.0 9.1671108097 -27.6186995204 -2.77225
321 2 0.0 11.0005175709 -25.8912577592 -1.386125
322 2 0.0 9.1671108097 -24.1587479996 -2.77225
442 2 0.0 9.1671108097 -27.618706425 0.0
417 2 0.0 12.83395 -24.1586789533 2.77225
285 2 0.0 12.83395 -24.1586789533 5.5445
318 2 0.0 9.1671108097 -24.1586789533 5.5445
411 2 0.0 12.83395 -24.1586789533 0.0
441 2 0.0 7.3336783806 -25.8912577592 1.386125
443 2 0.0 11.0005175709 -25.8912577592 1.386125
444 2 0.0 9.1671108097 -24.158609907 0.0
445 2 0.0 7.3336783806 -25.8912577592 4.158375
446 2 0.0 9.1671108097 -27.618706425 2.77225
447 2 0.0 11.0005175709 -25.8912577592 4.158375
448 2 0.0 9.1671108097 -24.158609907 2.77225
345 2 0.0 7.3336527127 -22.466975557 -4.158352822
346 2 0.0 11.0005432388 -22.4670446033 -4.158352822
348 2 0.0 7.3336527127 -22.4670446033 -1.386169356
349 2 0.0 11.0005432388 -22.4671136496 -1.386147178
471 2 0.0 7.3336783806 -22.4671826959 1.386125
472 2 0.0 11.0005175709 -22.4671826959 1.386125
474 2 0.0 7.3336783806 -22.4671136496 4.158397178
475 2 0.0 11.0005175709 -22.4671136496 4.158397178
325 2 0.0 -12.8336049105 -20.8998316859 -5.5440671509
326 2 0.0 -9.1674188245 -20.8999697785 -5.5441376791
329 2 0.0 -12.8338447803 -20.8990031303 -2.772205644
330 2 0.0 -9.1676755035 -20.8986578988 -2.772338712
1323 4 0.0 -11.1481028623 -18.9560402483 -3.265067338
451 2 0.0 -12.8337128163 -20.9003840563 -2.77225e-04
452 2 0.0 -9.1673161529 -20.9005221489 -2.43958e-04
711 1 0.0 -11.1767764734 -17.9732352141 -2.824279588
1302 4 0.0 -9.0104852839 -17.6956000418 -2.834437112
1326 4 0.0 -11.2088510812 -17.988632539 -1.750354294
455 2 0.0 -12.8338254786 -20.9006602415 2.772283267
456 2 0.0 -9.1672134813 -20.9007983341 2.772283267
701 1 0.0 -9.8855296628 -17.1934263019 -3.23721177
704 1 0.0 -9.9213363833 -15.8428116276 -2.768391028
723 1 0.0 -12.4755029101 -17.2364421468 -3.288709086
726 1 0.0 -12.5163816076 -15.8865179355 -2.816484021
1284 4 0.0 -7.3323693177 -16.7663058901 -2.897089962
1308 4 0.0 -9.8466941301 -17.1619411891 -4.314674455
1315 4 0.0 -9.9243138597 -15.8776109628 -1.689974689
1338 4 0.0 -11.2697841091 -15.780531865 -0.65713414
1345 4 0.0 -12.452635378 -17.2021261357 -4.367336116
1353 4 0.0 -12.5628995428 -15.9258052802 -1.739220938
687 1 0.0 -6.4670017371 -16.2270542871 -3.270101744
719 1 0.0 -11.0657602391 -16.2539132978 3.032320317
1310 4 0.0 -8.9032447977 -15.9649545323 2.98815283
1335 4 0.0 -11.040998416 -17.2336802948 2.584967879
1339 4 0.0 -11.0672233094 -16.278355688 4.106411946
1272 4 0.0 -6.4439006271 -16.2241543425 -4.349161245
332 2 0.0 -5.5002459515 -20.9005221489 -5.5443201098
333 2 0.0 -1.8326623921 -20.8991412229 -5.5438086374
335 2 0.0 -5.5002459515 -20.8996935933 -2.772327623
336 2 0.0 -1.8326367242 -20.8992793155 -2.772438513
458 2 0.0 -5.5002716194 -20.9008673804 -1.1089e-04
459 2 0.0 -1.833201418 -20.9004531026 -2.2178e-04
522 1 0.0 -0.5975743799 -17.8481233185 -3.768718629
894 4 0.0 -0.5738315724 -17.815326326 -4.8474831626
951 4 0.0 -1.472824102 -18.3820583564 -3.408104349
1250 4 0.0 -5.1088618123 -17.923729017 -3.208968087
461 2 0.0 -5.5002716194 -20.901005473 2.772261089
462 2 0.0 -1.8332270859 -20.9005911952 2.772327623
536 1 0.0 -0.6364099126 -16.499303848 -3.296349407
665 1 0.0 -3.8768282802 -16.1398488102 -3.212682902
674 1 0.0 -5.1561420841 -16.9322931953 -2.788728254
934 4 0.0 -1.5080404608 -15.9922968671 -3.697893186
986 4 0.0 -0.6842292103 -16.5389364242 -2.219308104
1229 4 0.0 -2.9958289485 -16.6197896415 -2.796568177
1236 4 0.0 -3.8341425625 -16.134739384 -4.290700037
1254 4 0.0 -5.1927701774 -16.9226267133 -1.714936028
644 1 0.0 -0.5049645967 -16.1406773658 2.12775732
1137 4 0.0 -0.5412590073 -16.1206539388 1.050095033
1193 4 0.0 -1.3658916306 -16.6775813946 2.505637173
1262 4 0.0 -4.9991058719 -16.1975024707 2.63840577
339 2 0.0 1.8338174476 -20.8992793155 -5.5441911292
340 2 0.0 5.500374291 -20.8996935933 -5.5440703966
343 2 0.0 1.848858837 -20.9180599091 -2.760850508
344 2 0.0 5.4999892725 -20.898934084 -2.772493958
944 4 0.0 0.7159290668 -19.558745401 -3.758328236
465 2 0.0 1.8332784217 -20.9001769174 1.44157e-04
466 2 0.0 5.5003486231 -20.9007292878 -1.44157e-04
528 1 0.0 1.9952942065 -17.80704077 -3.717565072
538 1 0.0 0.7014267033 -18.5836045061 -3.303945372
900 4 0.0 2.0335650454 -17.7758318424 -4.7949955989
961 4 0.0 4.5474278356 -17.3802655897 -3.377254751
962 4 0.0 2.8698508953 -18.3095597414 -3.314579723
990 4 0.0 0.6699578579 -18.6034898405 -2.230008989
469 2 0.0 1.8331757501 -20.8999697785 2.772305445
470 2 0.0 5.5003229552 -20.9007983341 2.772305445
1185 4 0.0 0.8389039757 -17.8480542722 2.104880713
525 1 0.0 0.6567388894 -15.7163878523 -3.696950621
531 1 0.0 5.4130264273 -16.8411520793 -3.750122376
539 1 0.0 1.9588457885 -16.4564260957 -3.248555817
905 4 0.0 5.4361018694 -16.8378378569 -4.8292428665
948 4 0.0 2.8294752886 -15.9224910578 -3.614559351
992 4 0.0 1.9556886368 -16.4912944772 -2.170095122
1061 4 0.0 0.6096896287 -16.3941463331 -1.137409819
648 1 0.0 2.0920108537 -16.0793642514 2.122867071
658 1 0.0 0.8139034411 -16.8679420437 2.55191157
1143 4 0.0 2.1127761848 -16.0476029534 1.045204784
1201 4 0.0 2.9763726803 -16.578707093 2.508032397
1222 4 0.0 0.8125173745 -16.8920392024 3.626080822
347 2 0.0 9.1668797986 -20.90031501 -5.5442935073
350 2 0.0 9.1667257912 -20.8996935933 -2.772427424
473 2 0.0 9.1670081381 -20.9008673804 -8.8712e-05
541 1 0.0 6.7236294013 -17.5463909875 -3.268992844
958 4 0.0 6.7706273262 -18.5381029944 -3.689033075
997 4 0.0 6.6865136179 -17.5364483203 -2.195156262
1356 4 0.0 12.3164081323 -17.769755768 -2.927928471
476 2 0.0 9.167033806 -20.9009364267 2.772283267
537 1 0.0 8.0032768879 -16.754084695 -3.693113827
911 4 0.0 8.0441915205 -16.7478014817 -4.7711952782
969 4 0.0 8.8868686775 -17.232575554 -3.279172546
661 1 0.0 6.8337190244 -15.8227882006 2.585034413
1199 4 0.0 6.8801265876 -16.8114621703 2.158407316
1225 4 0.0 6.8191139893 -15.8216144135 3.659292377
1366 4 0.0 12.422750242 -16.0644502506 2.985646716
710 1 0.0 -10.0082222248 -14.0108061497 -0.562899818
717 1 0.0 -11.2238103334 -15.1029805231 -3.216885633
722 1 0.0 -11.2990198472 -14.8126408316 -0.190586643
732 1 0.0 -12.6068529981 -14.0610028098 -0.61244547
1280 4 0.0 -6.5943145211 -14.8771300758 -1.750864388
1290 4 0.0 -7.4110670991 -14.3846228179 -3.246759399
1296 4 0.0 -7.5181535779 -13.5715335891 -0.300800214
1305 4 0.0 -9.0505272079 -15.3088075434 -3.134461096
1313 4 0.0 -9.1346665841 -14.5256844088 -0.179652889
1324 4 0.0 -9.9746999474 -13.9644070361 -1.638122525
1333 4 0.0 -11.1925288636 -15.059688493 -4.28767274
1337 4 0.0 -11.2527046884 -14.1285991375 -2.758754687
1360 4 0.0 -12.5913031276 -13.9766282312 -1.688089559
690 1 0.0 -6.5342516351 -14.8673255012 -2.827706089
1312 4 0.0 -9.3009689082 -13.5183679381 -3.535461514
696 1 0.0 -6.6547110898 -13.0121204665 -0.641931121
698 1 0.0 -6.7229107001 -11.6790435524 -0.141817221
699 1 0.0 -8.0589248951 -11.7400114353 -3.446561001
703 1 0.0 -9.3512779922 -12.5455055711 -3.082719822
714 1 0.0 -10.0439262737 -12.674829291 -0.079463774
716 1 0.0 -10.6587571828 -11.8154099949 -3.550786512
727 1 0.0 -11.3619010686 -11.9319601493 -0.481118443
734 1 0.0 -12.6503564951 -12.7331043682 -0.093114333
1288 4 0.0 -6.6287865108 -12.9467336204 -1.71923856
1297 4 0.0 -7.1931209602 -12.239837601 -3.02519009
1301 4 0.0 -7.9880814911 -11.6938885069 -4.5194206421
1316 4 0.0 -9.4088767598 -12.5791311192 -2.011134307
1319 4 0.0 -9.1851553434 -12.1266707153 -0.44821738
1334 4 0.0 -10.6122212801 -11.7712894092 -4.6256865291
1346 4 0.0 -11.5299205752 -12.3684018116 -3.20904571
1349 4 0.0 -11.3551786456 -11.8703708497 -1.553446921
708 1 0.0 -9.7873756132 -15.4654045518 2.602943148
713 1 0.0 -9.8174070562 -14.1161708035 3.079448567
725 1 0.0 -11.1404281602 -13.3806205696 2.666183715
731 1 0.0 -12.3844614356 -15.5269248051 2.60791102
733 1 0.0 -12.4228991158 -14.176586316 3.074070402
1293 4 0.0 -7.2272335993 -15.0567195021 3.002136059
1317 4 0.0 -8.960150532 -13.5780239413 2.690768028
1320 4 0.0 -9.7672006438 -15.4338503927 1.525269772
1329 4 0.0 -9.8018266409 -14.1462749903 4.157210655
1343 4 0.0 -11.3013222578 -14.8657374363 0.880699469
1347 4 0.0 -11.1561779837 -13.354244883 1.589330925
1357 4 0.0 -12.420329759 -15.5073847022 1.530182199
1363 4 0.0 -12.4416392496 -14.2040667434 4.151821401
1294 4 0.0 -6.770165304 -11.7331068053 0.930855016
1298 4 0.0 -7.3231032058 -12.6749673836 2.634624421
1325 4 0.0 -9.2068447189 -11.8040173554 2.258374651
1331 4 0.0 -10.0012918918 -12.7165332562 0.991168087
1351 4 0.0 -11.1622818103 -12.4051344432 3.111739735
1365 4 0.0 -12.6777243801 -12.8068458166 0.980300867
1291 4 0.0 -6.4823254734 -13.1503511591 4.13020894
700 1 0.0 -8.1360055988 -10.4024465117 -2.956804227
709 1 0.0 -9.4351863573 -9.6719366577 -3.433320735
720 1 0.0 -10.7249238954 -10.4746689415 -3.066640772
1299 4 0.0 -7.5981860901 -11.1794935719 -0.54125409
1300 4 0.0 -7.2628606445 -9.8481428153 -3.283974083
1306 4 0.0 -8.1820024756 -10.4609977741 -1.879374809
1322 4 0.0 -9.3689888432 -9.6260899145 -4.5015174516
1328 4 0.0 -9.471198421 -10.3360930174 -0.861659656
1342 4 0.0 -10.7919402155 -10.5158205363 -1.990020851
1352 4 0.0 -11.598969793 -9.9770522574 -3.473374203
1354 4 0.0 -11.3903744701 -10.9698690051 -0.006786468
702 1 0.0 -7.9826912321 -10.0264894082 2.358752279
712 1 0.0 -9.2584885337 -10.8451713873 2.740579816
724 1 0.0 -10.5806420627 -10.124949432 2.31915346
1303 4 0.0 -7.1027442843 -10.5227942126 2.755350364
1309 4 0.0 -7.9296356828 -9.9637953678 1.284516493
1330 4 0.0 -9.2886226483 -10.9179461875 3.811222766
1348 4 0.0 -10.6039023137 -10.0831764205 1.245704993
1358 4 0.0 -11.4400906256 -10.6810483322 2.669288635
697 1 0.0 -6.4440546345 -13.1540796593 3.052746255
582 1 0.0 -0.7278646403 -14.6744791853 -1.092787683
597 1 0.0 -0.7703706827 -13.3467188363 -0.573811394
667 1 0.0 -3.9380718896 -14.7817080892 -2.766273029
680 1 0.0 -5.2513443252 -14.0726025882 -3.23510486
686 1 0.0 -5.3410279678 -13.7431826909 -0.202185737
1018 4 0.0 -0.7131569336 -14.5901046067 -2.168254348
1071 4 0.0 -1.5968257269 -15.2275400483 -0.750204117
1233 4 0.0 -3.0715749214 -14.2399708194 -3.133141505
1241 4 0.0 -3.1821008988 -13.428814887 -0.17232306
1243 4 0.0 -3.9530619432 -14.7955863955 -1.687002837
1261 4 0.0 -5.213663848 -14.0554791058 -4.306557307
1265 4 0.0 -5.2993176303 -13.0891761373 -2.798719443
1266 4 0.0 -5.2942097182 -14.7153545949 -0.657622056
675 1 0.0 -4.0576072999 -12.9290577676 -0.571005877
679 1 0.0 -4.1160017724 -11.5883167142 -0.10046634
1058 4 0.0 -1.6446706925 -12.8303906049 -0.955272994
1240 4 0.0 -3.382772541 -12.4257792869 -3.580006027
1252 4 0.0 -4.0108917219 -12.8937751083 -1.647304217
656 1 0.0 -0.5422343875 -14.7903388767 2.593739278
672 1 0.0 -3.7787255664 -14.4079604673 2.629822884
683 1 0.0 -5.0462578042 -15.2090356399 3.065199202
695 1 0.0 -6.3750849872 -14.5137393989 2.616083613
1101 4 0.0 -0.799811764 -13.4200460069 0.49967034
1176 4 0.0 -1.4190755194 -14.2869223034 2.197695643
1221 4 0.0 -0.5629740507 -14.8174050263 3.671468099
1237 4 0.0 -2.8904365511 -14.8860370485 3.032431207
1247 4 0.0 -3.7494128246 -14.401677254 1.551473079
1267 4 0.0 -5.0604008171 -15.208138038 4.139446077
1271 4 0.0 -5.3620499779 -13.783022406 0.86882315
1285 4 0.0 -6.3996748354 -14.5278248441 1.537567473
676 1 0.0 -3.8366323488 -13.0512697186 3.084937622
688 1 0.0 -5.1696177316 -12.3459617641 2.645225505
1245 4 0.0 -2.9823276331 -12.5048373004 2.699927542
1257 4 0.0 -3.8426643053 -13.0593481357 4.163886233
1259 4 0.0 -4.0950054302 -11.6126900581 0.97017661
1275 4 0.0 -5.173365245 -12.3493450328 1.568638851
663 1 0.0 -2.129922342 -10.6546035993 -3.493777963
668 1 0.0 -3.4178092245 -11.4588549017 -3.11312586
681 1 0.0 -4.7290025602 -10.7164000378 -3.545630127
691 1 0.0 -5.4406707556 -10.8662305088 -0.525041972
1227 4 0.0 -1.2567260519 -11.1660985897 -3.101426965
1230 4 0.0 -2.0943979684 -10.5856263456 -4.5685992482
1244 4 0.0 -3.4415006962 -11.5103634415 -2.040908272
1248 4 0.0 -3.2569741631 -11.0338749252 -0.459151134
1263 4 0.0 -4.7198904557 -10.6594368403 -4.6197594586
1270 4 0.0 -4.8191738929 -9.4342792931 -1.971724001
1274 4 0.0 -5.5938567828 -11.2687704378 -3.186657019
1277 4 0.0 -5.4178519925 -10.8218337379 -1.597248471
1282 4 0.0 -5.48779702 -9.8982013828 -0.064371645
1278 4 0.0 -5.2140231986 -11.3610162946 3.067461358
677 1 0.0 -3.317062717 -9.759004042 2.733593746
1231 4 0.0 -1.1587773455 -9.4514718218 2.720553082
1253 4 0.0 -3.2786635386 -10.7136381858 2.241685706
1258 4 0.0 -3.327073198 -9.8442071762 3.803804225
1287 4 0.0 -5.4941113234 -9.5792074768 2.698641218
895 4 0.0 0.6869243398 -15.6733720074 -4.7677532526
540 1 0.0 5.3451861676 -15.4814232934 -3.307771077
588 1 0.0 1.8711129063 -14.6246277567 -1.04292045
590 1 0.0 5.2252400709 -13.6258730272 -1.121996109
598 1 0.0 0.5804025548 -15.4261172071 -0.67099539
599 1 0.0 1.8358708796 -13.2885128054 -0.559484406
921 4 0.0 2.5789052488 -14.1319824062 -4.015570858
946 4 0.0 4.4684733752 -14.9985825175 -3.726846565
955 4 0.0 0.6268357859 -14.7421445593 -3.238852942
993 4 0.0 5.285533968 -15.4911588217 -2.230929376
1024 4 0.0 1.9051485417 -14.5782976894 -2.118187513
1026 4 0.0 5.2511133141 -13.5606242737 -2.199358993
1079 4 0.0 4.3617719149 -14.1853551961 -0.780920647
1083 4 0.0 2.7448738902 -15.1394369695 -0.659728966
504 1 0.0 1.2203803055 -12.4291625556 -4.030751699
511 1 0.0 3.8206155792 -12.3538330423 -3.926681434
523 1 0.0 2.5282624821 -13.1590509929 -3.562962234
587 1 0.0 0.5176445393 -12.5453674785 -0.961338677
600 1 0.0 5.1564757668 -12.2928651594 -0.621915476
874 4 0.0 1.2670188798 -12.384834831 -5.1056350826
882 4 0.0 3.891766998 -12.3078482065 -4.999542184
927 4 0.0 0.34908344 -12.9818781871 -3.689110698
945 4 0.0 4.6864708499 -12.853659208 -3.505299434
973 4 0.0 2.4710744009 -13.1928836799 -2.491376719
1020 4 0.0 0.5237278316 -12.4838472252 -2.033622799
1067 4 0.0 4.2813030484 -11.7933151789 -1.021352345
1069 4 0.0 2.6946674778 -12.7405613686 -0.928448703
1081 4 0.0 0.4884088012 -11.583207288 -0.487150859
940 4 0.0 6.2858890347 -11.8827301374 -3.666888342
645 1 0.0 0.7395178669 -13.9938898062 2.185985659
653 1 0.0 5.5050971846 -15.1276300522 2.136129515
659 1 0.0 2.0625184366 -14.7300614568 2.599394668
660 1 0.0 5.4355115077 -13.7680393589 2.572714534
1102 4 0.0 0.5781181117 -15.4795590433 0.400346167
1103 4 0.0 1.8787106047 -13.3304239095 0.511058743
1139 4 0.0 0.7233470899 -13.9678593511 1.109132869
1150 4 0.0 5.4801223179 -15.1416464511 1.057580108
1187 4 0.0 2.9196979571 -14.1920526872 2.210581061
1188 4 0.0 4.556565608 -13.2889270832 2.15448181
1203 4 0.0 4.6527175614 -15.6704720628 2.521982359
1223 4 0.0 2.0781245198 -14.7600965973 3.677079133
1224 4 0.0 5.3976000194 -13.7643108587 3.65016613
1195 4 0.0 0.7170584544 -13.0185417724 2.631719103
1104 4 0.0 5.1096318493 -12.3470665049 0.450745672
1161 4 0.0 2.6731064418 -12.4177008698 1.778276396
507 1 0.0 2.4446364639 -10.2856201721 -3.913363545
518 1 0.0 1.1551581716 -11.0884215022 -3.546639226
527 1 0.0 3.7439968977 -11.016337165 -3.436880304
583 1 0.0 2.3630895456 -9.9689738403 -0.906847331
878 4 0.0 2.5104489595 -10.2399115215 -4.981578004
913 4 0.0 0.2835789592 -10.5890786606 -3.955346499
931 4 0.0 4.6170391804 -10.461895376 -3.764083427
970 4 0.0 1.086778886 -11.1289516803 -2.470130195
977 4 0.0 3.6978973493 -11.0748193811 -2.359495242
1042 4 0.0 2.4084447249 -10.9497074855 -1.341924246
1051 4 0.0 0.1757481113 -9.8146553598 -0.961560457
1062 4 0.0 4.5171397136 -9.63886348 -0.895458928
1085 4 0.0 6.3920514691 -10.5118158509 -0.544492078
1092 4 0.0 2.3704048971 -9.9858901838 0.166978162
926 4 0.0 6.2264678462 -9.4852354625 -3.912709294
624 1 0.0 1.2983593857 -10.738771039 1.838933226
629 1 0.0 3.8967209027 -10.6403800615 1.878687291
642 1 0.0 2.6210262727 -11.4588549017 2.26027087
1120 4 0.0 1.2752582757 -10.696652796 0.765506937
1125 4 0.0 3.9502384742 -10.5777550674 0.804451505
1167 4 0.0 0.4387670826 -11.2944556614 2.189212558
1181 4 0.0 4.77679619 -11.1366158196 2.275196664
1210 4 0.0 1.187397054 -9.4537503497 3.40143986
1211 4 0.0 2.5912258408 -11.5316987482 3.330947087
1180 4 0.0 6.3858398373 -10.1930290838 2.218454251
534 1 0.0 6.6279138022 -14.6862861026 -3.715557963
542 1 0.0 7.9405702082 -15.3958749277 -3.24663742
596 1 0.0 7.8223951966 -13.5426031894 -1.05112631
601 1 0.0 6.5387178497 -14.356797159 -0.682228547
907 4 0.0 6.6661589732 -14.6693697591 -4.7869338959
960 4 0.0 8.8067078258 -14.8535162412 -3.613916189
964 4 0.0 6.5803768514 -13.7027906054 -3.278950766
998 4 0.0 7.9250924645 -15.4092699099 -2.16723416
1033 4 0.0 7.8676477043 -13.506837206 -2.127491184
1073 4 0.0 6.585099745 -15.3290381093 -1.137775756
1088 4 0.0 8.700391384 -14.040565105 -0.654506047
1362 4 0.0 12.2771619132 -15.3806847417 -3.215676932
1368 4 0.0 12.1922781679 -14.6146160432 -0.269717747
530 1 0.0 8.4616029103 -12.0721931846 -3.593468073
595 1 0.0 6.438792715 -11.4798449769 -1.005284384
602 1 0.0 7.7630766797 -12.2020002286 -0.580475883
930 4 0.0 8.4960749 -13.0391866161 -4.060448041
952 4 0.0 10.6255352198 -11.7783321318 -3.584563606
981 4 0.0 8.4373980806 -12.1237707707 -2.52119504
1080 4 0.0 8.6219246137 -11.6473513007 -0.939315923
1370 4 0.0 12.1406856889 -12.2182951554 -0.47228051
657 1 0.0 8.1017389523 -15.0218511206 2.149813341
662 1 0.0 8.0423690996 -13.6651603719 2.60491699
1105 4 0.0 6.5173878248 -14.3967749667 0.388758162
1153 4 0.0 8.12902393 -15.014808398 1.071385913
1208 4 0.0 8.9928771045 -15.4975801276 2.550203864
1226 4 0.0 8.0363371431 -13.6730316501 3.68387669
1369 4 0.0 12.3656391645 -13.6749649465 2.680399813
654 1 0.0 6.7099484106 -12.9595071859 2.164938737
1106 4 0.0 7.784304033 -12.2260973873 0.490178156
1152 4 0.0 6.7062265651 -12.9630285472 1.08838535
1200 4 0.0 8.8966994832 -13.1183136759 2.220195224
1204 4 0.0 6.6658766263 -11.974699809 2.587352014
513 1 0.0 7.1506405857 -11.3300835522 -4.02575056
520 1 0.0 9.749951815 -11.2681490211 -3.974752249
529 1 0.0 7.1036426608 -9.9945209713 -3.527865549
535 1 0.0 9.693739114 -9.9373506349 -3.461885999
883 4 0.0 7.1601633766 -11.2732584473 -5.0999619502
892 4 0.0 9.7838077751 -11.1988265359 -5.0494948023
979 4 0.0 7.060725932 -10.0481699464 -2.451800078
987 4 0.0 9.6697396275 -10.0175824355 -2.385144099
1030 4 0.0 6.4621761719 -11.4355862986 -2.077479794
1053 4 0.0 8.3593163288 -9.8835635672 -1.321398507
633 1 0.0 7.2406322431 -9.6398991745 1.854424559
639 1 0.0 9.8387884169 -9.5579412164 1.863661696
650 1 0.0 8.5629141116 -10.3724804175 2.253539847
1127 4 0.0 7.1969198094 -9.5854216438 0.780976092
1134 4 0.0 9.8706166129 -9.4795736659 0.789170863
1171 4 0.0 8.6005689209 -11.3271836076 1.761764875
1191 4 0.0 10.7244336385 -10.0634291787 2.238436629
1217 4 0.0 8.5524672763 -10.4578906906 3.323717059
705 1 0.0 -8.2423733764 -8.5397154303 -0.82313647
715 1 0.0 -9.5161685818 -9.3554284185 -0.426471851
728 1 0.0 -10.8493875425 -8.6462538712 -0.855383282
1304 4 0.0 -7.3623750928 -9.025041873 -0.415371762
1314 4 0.0 -8.1996363229 -8.5196920033 -1.899523522
1327 4 0.0 -9.4875745412 -8.6986600129 -2.971685665
1350 4 0.0 -10.849246369 -8.6155282677 -1.933267349
1361 4 0.0 -11.7025628706 -9.2013861232 -0.48104082
707 1 0.0 -8.3149365297 -7.1870984133 -0.3759171
721 1 0.0 -9.6442514028 -6.4903522 -0.820009372
730 1 0.0 -10.9107209895 -7.2968820303 -0.389179544
1311 4 0.0 -7.4638403015 -6.6387326987 -0.756402868
1340 4 0.0 -9.6303650689 -6.4811690421 -1.893768331
1367 4 0.0 -11.8031194356 -6.8186673565 -0.783338049
706 1 0.0 -8.0524822522 -8.6896149476 2.863878407
718 1 0.0 -9.3702722382 -7.9629716864 2.432139281
729 1 0.0 -10.6473965702 -8.7844845638 2.806226696
1307 4 0.0 -7.1927102738 -8.128130436 2.512667599
1318 4 0.0 -8.0719641883 -8.7537589603 3.941019511
1332 4 0.0 -9.5092125809 -9.3721376231 0.647309286
1336 4 0.0 -9.3536651069 -7.9179534988 1.357393401