# LAMMPS data file written by Ovito Basic 3.0.0-dev791
1610 atoms
4 atom types
-11.84525 11.84525 xlo xhi
-37.40145 37.40145 ylo yhi
-5.1174 5.1174 zlo zhi

Atoms  # charge

225 2 0.0215497 -11.6651583726 -30.7324198914 5.11202673
227 2 0.0240489 -8.612491751 -30.9238704336 5.1026925924
233 2 0.0217956 -11.6558266846 -30.7528111619 -2.5687096344
235 2 0.0239425 -8.613202466 -30.9250747603 -2.5513104744
351 2 0.0222125 -11.6668313957 -30.7575312249 -0.0037459368
353 2 0.022809 -8.6182485425 -30.8385577262 0.004963878
359 2 0.0219598 -11.6722072439 -30.738007668 2.5609618908
361 2 0.0232556 -8.622678666 -30.8564206587 2.54181258
241 2 0.0231021 -5.144865885 -30.8103046708 5.1153939792
247 2 0.0231401 -5.163202332 -30.8157353614 -2.5693134876
367 2 0.0236958 -5.152968036 -30.8238140746 -0.0053016264
373 2 0.02353 -5.136337305 -30.8117857683 2.5620058404
226 2 0.0050436 -10.0523790196 -29.3652996501 -3.8388585492
228 2 0.00633498 -6.90293789 -29.5475943174 -3.8409464484
230 2 0.00869513 -10.0921909048 -26.7196706829 -3.8351126124
232 2 0.00901439 -6.713319128 -26.810107389 -3.8378862432
234 2 0.00500344 -10.0778936881 -29.3503390701 -1.2899634876
236 2 0.00642295 -6.8911637115 -29.5352518389 -1.2794728176
238 2 0.0088681 -10.1098426964 -26.7189974568 -1.2714487344
239 2 0.00510904 -8.420409177 -28.0669457148 -2.5507782648
240 2 0.00859805 -6.707017455 -26.8038987483 -1.2737617992
231 2 0.00455719 -8.4290562095 -28.0781661498 5.108342202
352 2 0.00476473 -10.1067984671 -29.3434572033 1.2778250148
354 2 0.0063021 -6.8701265475 -29.5303148475 1.2778045452
356 2 0.00869728 -10.1173904896 -26.7117415755 1.279401174
357 2 0.00449236 -8.434054905 -28.0629811611 0.0071336556
358 2 0.00786091 -6.7078466225 -26.7878161248 1.275665472
360 2 0.00479161 -10.0766949487 -29.3531067774 3.8363407884
362 2 0.00620647 -6.8877048985 -29.5407124506 3.83395608
364 2 0.00848449 -10.0998453053 -26.7100959117 3.8294220636
365 2 0.00398306 -8.4268293025 -28.0596150306 2.5484344956
366 2 0.00826466 -6.71578294 -26.7961940496 3.836463606
237 2 0.0055515 -11.8065155587 -28.0736031729 -2.5672665276
229 2 0.0052785 -11.7987289651 -28.0642528104 -5.1149996631
355 2 0.00488034 -11.8183205348 -28.0777921353 -0.0037254672
363 2 0.00461268 -11.822642985 -28.0650756423 2.5669083096
250 2 0.00482066 -5.0973664325 -28.2255278628 -2.5594573752
244 2 0.00438856 -5.0978876235 -28.2166263177 5.1168984948
370 2 0.00421855 -5.094926311 -28.2163271061 -0.0012895848
376 2 0.00378109 -5.099948697 -28.2108664944 2.5611154128
283 2 0.0102863 -8.355212921 -25.4579701686 -5.1103008254
289 2 0.00919874 -8.3587428055 -25.4534819946 -2.5608595428
409 2 0.0101283 -8.366773885 -25.4491434264 -0.008904276
415 2 0.0112836 -8.3640968585 -25.4349308754 2.560798134
293 2 0.011581 -5.1073638235 -25.4391198378 5.1135312456
298 2 0.0100737 -5.1160345465 -25.4445056466 -2.5553122812
419 2 0.0104222 -5.112694186 -25.4206435215 -5.322096e-04
424 2 0.0120057 -5.12283372 -25.4117419764 2.5557216732
243 2 0.023476 -1.54509441 -30.919599188 5.1072982524
249 2 0.023386 -1.553480847 -30.9136299166 -2.5466024664
369 2 0.0224565 -1.537892498 -30.8446167611 0.0097025904
375 2 0.0225595 -1.532727969 -30.85129666 2.5466945796
254 2 0.0225377 1.3998953355 -30.8902166089 -5.1170361447
262 2 0.0225365 1.4035436725 -30.8872095323 -2.5596825408
380 2 0.0225382 1.3949677115 -30.8690249473 0.0014226372
388 2 0.0225803 1.394328068 -30.8740517022 2.5621900668
242 2 0.00702858 -3.326525248 -29.6076610461 -3.8404347084
245 2 0.00913467 -3.466583484 -26.832548259 -3.8379783564
248 2 0.0070481 -3.341545025 -29.5929996777 -1.2765968388
251 2 0.0088656 -3.471984918 -26.8223002617 -1.27781478
252 2 0.00508691 -1.754234144 -28.1376344553 -2.5487108352
246 2 0.00482251 -1.756934861 -28.1342683248 5.1110851284
368 2 0.00681958 -3.345619791 -29.5797595644 1.2780399456
371 2 0.00852211 -3.480371355 -26.8066664556 1.2810694464
372 2 0.00462177 -1.7473875895 -28.1110046229 0.0029066832
374 2 0.0068031 -3.3259803665 -29.5946453415 3.8331065916
377 2 0.00875385 -3.473548491 -26.82431994 3.8291559588
378 2 0.00434433 -1.74693747 -28.1147447679 2.5456199256
257 2 0.00864249 0.027765266 -26.8420482273 -3.84035283
265 2 0.00893759 0.052640291 -26.8338947112 -1.2695552964
383 2 0.00913318 0.0707635235 -26.8339695141 1.2777021972
391 2 0.00877326 0.0469308805 -26.8344183315 3.826382328
253 2 0.00460293 -0.083674846 -29.383327149 -3.83625891
261 2 0.00444185 -0.0623297055 -29.3685909777 -1.2866985864
379 2 0.004176 -0.0456515935 -29.354154018 1.2757064112
387 2 0.00432876 -0.070029118 -29.363878395 3.8449175508
255 2 0.00803079 3.3223320295 -29.7937706613 -3.8424202596
259 2 0.00831706 3.4751831355 -26.9644257717 -3.8414684232
263 2 0.00793675 3.3203420275 -29.7806053509 -1.2900556008
266 2 0.00484374 1.7479087805 -28.2122877495 -2.5656698988
267 2 0.00804408 3.465683245 -26.9493155859 -1.2932283888
258 2 0.00487356 1.7457292545 -28.2152798655 -5.1153904073
381 2 0.00792822 3.3159355945 -29.7764163885 1.2795956352
384 2 0.004274 1.7679509435 -28.2145318365 -0.0068470812
385 2 0.00789357 3.4549988295 -26.9369731074 1.278633564
389 2 0.00800312 3.318517859 -29.7871132032 3.8486020788
392 2 0.0043088 1.764326297 -28.2206656743 2.5640323308
393 2 0.00817475 3.4631009805 -26.9535793512 3.8442011148
295 2 0.0101729 -1.7118518395 -25.5712217592 5.113459602
300 2 0.00939357 -1.709553861 -25.5734658462 -2.5607776644
421 2 0.0111275 -1.6989642075 -25.5639658779 -5.833836e-04
426 2 0.0118033 -1.6932784875 -25.5671075997 2.5590889224
304 2 0.00930676 1.8314888645 -25.6018161453 5.1168984948
310 2 0.00951281 1.830943983 -25.5979263945 -2.5650353412
430 2 0.0114822 1.848996144 -25.5801233043 -0.00409392
436 2 0.0112111 1.8445186395 -25.5819185739 2.560337568
256 2 0.0246283 5.175094963 -31.0164390224 5.1099081264
264 2 0.0244783 5.1733181755 -31.0030493033 -2.5544116188
382 2 0.0240098 5.1896172395 -30.9496624735 0.007369056
390 2 0.024077 5.191346646 -30.9587585062 2.5541557488
270 2 0.0237872 8.5384115575 -30.9157767598 5.1066125208
276 2 0.0237263 8.535924055 -30.9104059116 -2.5521292584
396 2 0.0231459 8.5223020175 -30.8537427149 0.0044623728
402 2 0.0232801 8.5293144055 -30.8628013461 2.5468890408
281 2 0.00905765 11.824828789 -25.4748008211 -5.1134710752
287 2 0.00859808 11.8276953395 -25.4738283834 -2.5609414212
407 2 0.0104538 11.817911163 -25.4625331455 -0.0054142092
413 2 0.0111214 11.828524507 -25.4518363308 2.5625175804
268 2 0.00424576 5.0355342275 -28.369747854 -2.561616918
260 2 0.00437713 5.0373820865 -28.3654092858 5.1128659836
386 2 0.00352397 5.0109908695 -28.3446888825 -0.0014431068
394 2 0.00364418 5.011298846 -28.3527675957 2.5589661048
269 2 0.00603415 6.8174862565 -29.6050429446 -3.8415400668
271 2 0.00687524 10.2188734845 -29.5448266101 -3.8420825112
272 2 0.00860267 6.672097658 -26.9534297454 -3.8376713124
274 2 0.00880507 10.1186152885 -26.8478080506 -3.8402709516
275 2 0.00583952 6.8164438745 -29.5783383093 -1.282266918
277 2 0.00673556 10.2323296885 -29.5307636649 -1.2942313992
278 2 0.00784161 6.668780988 -26.95148487 -1.266147108
279 2 0.00476163 8.46366803 -28.2228349584 -2.5552815768
280 2 0.00864579 10.13290066 -26.8322490474 -1.2846823308
273 2 0.00471601 8.4568214755 -28.2275475411 5.1169701384
395 2 0.00561869 6.8143591105 -29.5552242132 1.2791043648
397 2 0.00651472 10.231074092 -29.5196928357 1.2780604152
398 2 0.00717924 6.6645403885 -26.9470714989 1.2761567424
399 2 0.00392294 8.487500673 -28.207425561 -0.0013202892
400 2 0.00838789 10.1371412595 -26.8122766731 1.284006834
401 2 0.00582278 6.8156857785 -29.5825272717 3.8364533712
403 2 0.00661993 10.216385982 -29.5273975344 3.847158972
404 2 0.00796002 6.6689942025 -26.9494651917 3.8264130324
405 2 0.00389309 8.479493284 -28.2027877812 2.5552918116
406 2 0.00854995 10.124087794 -26.8299301575 3.844395576
306 2 0.00992142 5.04275983 -25.581843771 -5.11638127
312 2 0.0100392 5.046313405 -25.5873043827 -2.5611665868
432 2 0.0113465 5.0247313595 -25.5723438027 -0.002763396
438 2 0.0111704 5.0282375535 -25.5761587506 2.5606650816
316 2 0.00999476 8.3471344605 -25.6303908531 -5.1160568974
320 2 0.00982907 8.350095773 -25.6335325749 -2.5597644192
442 2 0.0110144 8.360330069 -25.6239578037 -0.0018013248
446 2 0.0111561 8.3513513695 -25.6205168703 2.560798134
282 2 0.00476954 -10.1153649519 -24.1103211222 -3.839687568
284 2 0.00476621 -6.7222504465 -24.0392583672 -3.8396773332
288 2 0.00484713 -10.1237229603 -24.1250572935 -1.2909357936
290 2 0.00468208 -6.7383126055 -24.0415772571 -1.2858183936
408 2 0.00827656 -10.1208848384 -24.1278998037 1.2768220044
410 2 0.00951375 -6.7480257105 -24.0275143119 1.2776203188
414 2 0.00841728 -10.1156705594 -24.1174273977 3.8554082208
416 2 0.00949997 -6.7304947405 -24.0268410858 3.8447230896
292 2 -0.00128559 -8.4264502545 -22.7223533127 -2.565557316
286 2 6.80149e-04 -8.416144887 -22.720632846 -5.1105055317
412 2 5.43533e-04 -8.4378216945 -22.7266918809 -0.0046363644
418 2 0.00306438 -8.4341733575 -22.7156958546 2.5718824224
323 2 0.0112516 -10.2977533733 -21.529770678 -3.8415195972
324 2 0.00707061 -6.7172754415 -21.282173079 -3.8397796812
327 2 0.00710891 -10.2688628086 -21.5651524497 -1.3010170716
328 2 0.0126483 -6.757809887 -21.2877832965 -1.2638135736
449 2 -3.08965e-04 -10.2606137765 -21.5875185168 1.2859105068
450 2 0.00532849 -6.76174251 -21.2805274152 1.2863198988
453 2 0.00368443 -10.2848017769 -21.5561761017 3.8670861276
454 2 1.11873e-04 -6.7186021095 -21.2755156209 3.825717066
301 2 -0.00126772 -5.0446313795 -22.7280383331 -2.5452207684
422 2 0.00356945 -5.033331011 -22.7434477305 0.0051890436
296 2 -0.00208376 -5.0271951715 -22.7162194749 5.106346416
427 2 0.00286511 -5.023001953 -22.7257942461 2.5441870536
326 2 0.0401408 -8.624147477 -20.1331257321 5.112077904
330 2 0.053534 -8.655324175 -20.1201100275 -2.559877002
452 2 0.0335888 -8.720852098 -20.0866731312 0.003172788
456 2 0.0175928 -8.7131526855 -20.0881691892 2.5666933788
332 2 0.029077 -4.723506652 -20.1448697874 5.1148822392
335 2 0.0491997 -4.7677368155 -20.1756137793 -2.5439925924
458 2 0.0376209 -4.772972416 -20.2037396697 0.0108898272
461 2 0.0175631 -4.7330065425 -20.1631964979 2.5544730276
294 2 0.0050825 -3.4045854455 -24.192753918 -3.8387971404
299 2 0.00549385 -3.393048172 -24.1884153498 -1.2902807664
420 2 0.00921445 -3.378123157 -24.1884153498 1.2806191152
425 2 0.00867161 -3.3909397175 -24.197242092 3.839789916
303 2 0.00524566 0.106275583 -24.2665095774 -3.844293228
309 2 0.00658477 0.1173864275 -24.2759347428 -1.2970869084
305 2 0.00491583 3.416075338 -24.2169152547 -3.8377531908
311 2 0.00790039 3.413185097 -24.1846752048 -1.2867088212
429 2 0.00813369 0.130582036 -24.275037108 1.279657044
431 2 0.00958486 3.4105554515 -24.1540060158 1.27448847
435 2 0.00706263 0.122006075 -24.2693520876 3.8467905192
437 2 0.00610766 3.41522248 -24.1923799035 3.8420722764
302 2 -5.81741e-04 -1.579966826 -22.9917933585 -2.5695591228
297 2 -1.78587e-04 -1.583093972 -22.9908957237 5.1155679708
423 2 -9.6409e-04 -1.5559209685 -23.0163287097 -0.0072360036
428 2 1.48935e-04 -1.559877282 -23.0112421125 2.5629679116
331 2 0.00193265 -3.163487227 -21.6357663873 -3.8286953928
334 2 0.00443097 -3.1302494555 -21.6197585667 -1.2630152592
457 2 -0.00256919 -3.1008732355 -21.6138491376 1.2662903952
460 2 -0.00405458 -3.13709601 -21.6321010452 3.8181535488
463 2 -0.00304228 -0.1000923625 -21.5638808004 1.2919797432
467 2 0.0060476 -0.084954133 -21.5288730432 3.8575370592
313 2 0.00109045 1.7100039805 -22.8276757959 -2.5621184232
307 2 1.35473e-04 1.713533865 -22.8345576627 5.113664298
433 2 1.9774e-04 1.6853184795 -22.8181010247 -0.0046670688
439 2 -3.28427e-04 1.704389332 -22.8130892304 2.5561617696
337 2 0.0134076 -0.075193647 -21.5186250459 -3.8587652352
338 2 0.00780205 3.4412109585 -21.5162313531 -3.8348874468
341 2 0.00371454 -0.0933642605 -21.5549792553 -1.3138003368
342 2 0.00389651 3.4497395385 -21.4773338451 -1.2536197128
464 2 -0.00211939 3.468004914 -21.4499559837 1.2608659512
468 2 0.00442401 3.4606845495 -21.4875070395 3.8106514404
333 2 0.0573786 -1.723578637 -20.0672991801 5.1141658032
336 2 0.0626116 -1.6912411045 -20.0624369916 -2.5653219156
459 2 0.0380598 -1.585273498 -20.0304213504 -0.0081161964
462 2 0.0293176 -1.6501143965 -20.0401457274 2.5635819996
339 2 0.0632003 1.7058344525 -20.2178774178 5.105783502
343 2 0.056564 1.663973339 -20.2170545859 -2.5620979536
944 4 0.0120623 0.204828063 -19.0824441987 -3.8921716224
465 2 0.0259477 1.5609907355 -20.1961097739 -0.002865744
469 2 0.0317911 1.621756868 -20.2048617132 2.5536440088
315 2 0.0055431 6.7157592495 -24.2416750146 -3.8400355512
317 2 0.00412731 10.0298706755 -24.2864071488 -3.83702652
319 2 0.00841384 6.7146694865 -24.2670331977 -1.2921844392
321 2 0.00617189 10.0373094925 -24.2588796816 -1.2877220664
441 2 0.0119995 6.7043878095 -24.2760095457 1.2811206204
443 2 0.00997383 10.0383992555 -24.2395805334 1.2841910604
445 2 0.00854268 6.707206979 -24.2571592149 3.8488170096
447 2 0.00743134 10.030036509 -24.2700253137 3.841427484
291 2 4.693e-04 11.726086785 -22.8860220579 -2.553019686
417 2 0.0020097 11.7385716785 -22.8813094752 2.55537369
285 2 8.61091e-04 11.7163973705 -22.8932031363 5.1173692956
411 2 0.00227462 11.7356814375 -22.8832543506 7.6761e-04
325 2 0.0557735 11.6357549085 -20.2151845134 -5.1167466175
329 2 0.0661169 11.663543865 -20.2094246901 -2.5470220932
451 2 0.026137 11.7782295755 -20.2187750526 0.0036640584
455 2 0.0197398 11.746839663 -20.2061333625 2.5555169772
314 2 0.00102462 5.0904488065 -22.8641796111 -2.5681876596
308 2 -9.19633e-04 5.0879849945 -22.8542308254 -5.1103415292
434 2 0.00378519 5.1169347855 -22.8667977126 -0.0121180032
440 2 0.00236401 5.100991079 -22.8599158458 2.5625994588
322 2 -3.28575e-04 8.3874083105 -22.9287345138 -2.5649227584
318 2 -5.71175e-04 8.3848023555 -22.9274628645 -5.1126198776
444 2 0.00362419 8.370043174 -22.9451911518 -0.0020776644
448 2 0.00372992 8.3618699515 -22.9403289633 2.5654447332
345 2 0.0043885 6.795240877 -21.53575491 -3.8484792612
346 2 0.00703342 10.0089756545 -21.6115302477 -3.8251439172
348 2 0.00185848 6.802205884 -21.6124278825 -1.3247106336
349 2 0.00580456 9.989620516 -21.561935925 -1.2500170632
471 2 -0.00125617 6.7873993215 -21.6508765731 1.2859821504
472 2 -0.00259432 9.9821106275 -21.5450304696 1.2751434972
474 2 0.00164598 6.7816662205 -21.5832547515 3.8825099712
475 2 8.95198e-04 10.0023423145 -21.5935775517 3.8070487908
340 2 0.0456205 5.1450790995 -20.1343225785 -5.1164160079
344 2 0.036429 5.1783879425 -20.1609524109 -2.5542069228
466 2 0.0166746 5.316195581 -20.1404564163 -0.0094876596
470 2 0.0241907 5.270946726 -20.1348461988 2.5554453336
347 2 0.0471494 8.445710631 -20.1358186365 5.1106757364
350 2 0.0448694 8.395865819 -20.1202596333 -2.5613405784
473 2 0.019611 8.2580107995 -20.1181651521 5.1174e-04
476 2 0.0198767 8.276323556 -20.1396335844 2.56509675
1323 4 0.0307057 -10.4995087785 -18.5651073423 -4.2607339348
711 1 -0.217461 -10.8311118141 -17.7873067881 -3.5390300832
1326 4 0.061318 -10.5383019722 -18.278836644 -2.565147924
1250 4 0.0631019 -6.5117840445 -16.8100817025 -0.5801186988
1302 4 0.0828163 -8.9186914635 -16.6972789293 -3.9070530216
701 1 -0.210601 -10.0098356196 -16.481322957 -3.819269142
704 1 -0.210374 -10.2849581343 -15.4331847222 -2.6631358992
1284 4 0.10079 -7.065217815 -14.8598952966 -2.073672828
1308 4 0.120799 -10.2768773047 -16.1114226165 -4.8299945342
1315 4 0.106727 -10.0525732816 -15.8023370337 -1.6402085784
1338 4 0.103035 -11.3137180967 -14.3255781819 -0.373928418
687 1 -0.215308 -6.145078795 -15.485696358 -2.3498998452
1310 4 0.0841345 -9.8300531533 -14.8922849523 3.7847369268
1272 4 0.10571 -6.4902256895 -16.14246582 -3.1622154516
665 1 -0.231032 -4.551845289 -17.3072965788 -1.5485866488
674 1 -0.2158 -5.655111874 -16.2753157704 -1.0811633328
1254 4 0.113109 -5.23133621 -15.5868298788 -0.3287724804
1262 4 0.07197 -6.077655632 -15.6155541924 3.793579794
717 1 -0.225396 -11.7903344734 -15.029398668 -2.7517999716
722 1 -0.2393 -11.6003992063 -13.3956285291 0.1435328352
1280 4 0.130905 -4.6053621285 -13.9760242302 -1.8068208876
1290 4 0.105935 -5.0402249465 -13.859481312 -3.498664032
1305 4 0.10117 -9.599535112 -14.5489396413 -2.8323376128
1313 4 0.0987816 -9.6511756639 -12.5493833214 -0.46977732
690 1 -0.224797 -4.869534894 -14.5918765059 -2.6913634776
708 1 -0.223975 -10.6672967447 -14.1731298717 3.620509326
713 1 -0.226849 -10.5633215093 -12.9380591898 4.596858072
1293 4 0.102414 -7.8626637355 -13.8243987519 4.0853432376
1320 4 0.102699 -10.494794369 -13.8328514796 2.5604501508
1329 4 0.125271 -10.5227610042 -13.2202905315 -4.5733876286
1343 4 0.11499 -11.4450392764 -13.5835334139 1.265072454
686 1 -0.224958 -5.98516792 -12.7332488496 0.107516574
1266 4 0.103207 -6.2201066085 -13.7825839308 -0.2079097272
683 1 -0.223121 -5.771763896 -14.6175339006 4.154868234
695 1 -0.236774 -6.859394751 -13.567750002 3.716460576
1267 4 0.125507 -5.7411320795 -14.745147648 -4.9420962986
1271 4 0.115939 -5.5187256655 -12.8773940379 1.1251525032
1285 4 0.114676 -6.934635779 -13.5438878769 2.6005398624
1229 4 0.0442898 -4.2640294045 -17.9906210703 -0.7541410032
1236 4 0.070604 -4.963823084 -17.9357157417 -2.362601232
1241 4 0.100135 -4.0914678025 -12.5753399277 -1.0786148676
672 1 -0.223688 -4.3401232905 -14.2097084898 3.6351143856
1247 4 0.107165 -4.387622743 -14.1200946156 2.5125103476
538 1 -0.222851 0.228471182 -17.9778297744 -3.6620523792
962 4 0.0446981 2.5046307315 -18.0993844869 -3.7965888252
990 4 0.0845816 0.122764171 -17.839743621 -2.5386090876
1185 4 0.0634168 0.4907013265 -16.9731520245 1.1435444388
680 1 -0.208012 -3.6896295415 -15.508137228 -3.10549419
1261 4 0.110022 -3.930348712 -16.0956392046 -4.0142318472
1265 4 0.107116 -2.89876958 -14.8269820206 -3.4445526444
676 1 -0.222527 -3.9283824005 -12.8169532947 4.2314347728
522 1 -0.215221 -0.863092296 -17.2163362524 -4.447611148
894 4 0.0950636 -0.682902353 -17.428327671 4.721364414
951 4 0.0758448 -1.906374535 -17.5454690124 -4.183576848
536 1 -0.213834 -0.6934446255 -15.6744240747 -4.1905805216
934 4 0.0941957 -1.4733358855 -15.1059220347 -4.7932782127
986 4 0.136912 -0.8582357435 -15.413137545 -3.1372118352
644 1 -0.22943 -0.651157083 -15.2902363803 1.8914831532
1137 4 0.123564 -0.788704126 -14.837155215 0.8582186844
1193 4 0.0884538 -1.5888507635 -15.8298645009 2.2180960908
528 1 -0.208916 1.6471767745 -17.477697585 -4.143151435
900 4 0.0855311 1.706331953 -17.6824331223 4.9654848636
525 1 -0.232568 0.7404939585 -15.2105712918 -4.6781868632
539 1 -0.216877 1.8565534135 -15.9473798568 -3.850382934
948 4 0.109257 2.8374822565 -15.6002944008 -4.230147235
992 4 0.11796 1.77536607 -15.7555104183 -2.7633857652
1061 4 0.111383 0.370661563 -14.9391863706 -1.6381206792
648 1 -0.229703 1.929970273 -15.3197087229 1.5821567928
658 1 -0.223327 0.642533741 -16.1670759741 1.9299455316
1143 4 0.110204 1.956551014 -15.0053869371 0.5161819032
1201 4 0.0842185 2.7953131665 -15.9865765764 1.675641456
1222 4 0.0978987 0.701096657 -16.6941372075 2.9102858496
895 4 0.145304 0.8199045145 -15.3711731181 4.458432402
582 1 -0.222487 -1.1365991185 -13.360545969 -1.3258057572
667 1 -0.216992 -3.276111864 -16.4631458523 -1.920509046
1018 4 0.111844 -1.309516078 -13.0847476767 -2.4144507288
1071 4 0.105809 -1.929496463 -14.0826931656 -0.9703920924
1233 4 0.0912418 -2.3708267875 -17.101438998 -2.2519425744
1243 4 0.123153 -3.0293753065 -15.8785611888 -1.0324252152
656 1 -0.228485 -0.49465764 -14.0687050233 2.899365318
1176 4 0.0977434 -1.4455706195 -13.5089549226 2.8880763336
1221 4 0.129317 -0.3650469145 -14.4837863154 3.9518302716
1237 4 0.093981 -3.5735934725 -14.9797295424 3.8605972644
1245 4 0.092457 -2.9239525815 -12.537714069 3.7968651648
1257 4 0.11436 -3.7990796515 -12.7796266476 -4.8648245821
588 1 -0.221496 1.319513469 -12.9809960544 -1.6149081528
598 1 -0.238248 0.2644570515 -14.0070674337 -1.090671462
921 4 0.101836 3.299944507 -13.1333695617 4.8114511236
955 4 0.110852 0.8021840205 -14.1491929437 -4.5111293402
1024 4 0.12988 1.056975348 -12.5394345357 -2.6272833948
1079 4 0.100316 3.8966845115 -12.5708517537 -1.75117428
1083 4 0.0968715 2.3104633935 -13.4904786063 -1.690584264
973 4 0.118964 3.8438073155 -12.5484856866 -3.7433166912
645 1 -0.246941 0.7133920265 -13.1521450896 2.5356614652
659 1 -0.216455 2.012128927 -14.0672837682 2.5085290104
1102 4 0.142897 0.4494798565 -14.2061927535 0.0185045184
1139 4 0.131036 0.540190781 -12.7331740467 1.5120177084
1187 4 0.109978 2.8792249175 -13.498931334 2.1453061932
1223 4 0.120903 2.316267566 -14.4243180099 3.5406676512
541 1 -0.220671 6.793061351 -17.0896949427 -4.0900921848
958 4 0.0328844 6.864701423 -18.1408252935 -4.5285397585
997 4 0.0803135 6.5885412645 -17.2206000177 -3.010975812
1356 4 0.0394849 10.658924522 -18.3023247546 -3.3250204152
719 1 -0.217347 11.6412511045 -14.8925841639 3.8635551216
1335 4 0.0768 11.5205243165 -15.8900808354 3.3821510688
1339 4 0.138683 11.4988238185 -15.0908866518 4.9616979876
1333 4 0.128135 11.706992242 -14.6385535155 -3.8027297052
1337 4 0.11093 11.65288314 -14.1800865414 -2.0589244812
723 1 -0.210507 11.320221139 -17.4263079927 -3.531006
726 1 -0.204398 11.043137051 -16.3261069395 -2.4731166024
1345 4 0.0945166 10.925395266 -17.1168483954 -4.5899720986
1353 4 0.0866209 11.2343430765 -16.7105938455 -1.4299653168
961 4 0.0907405 4.6740171975 -16.7880896499 -4.6296421834
531 1 -0.222213 5.6214002925 -16.2732960921 -4.7830710467
905 4 0.111363 5.800524163 -16.2305088333 4.3346015568
1203 4 0.0865349 4.7670734815 -15.4742515143 2.5920552132
537 1 -0.217573 8.199234669 -16.3988901612 -4.2205490395
911 4 0.100441 8.674229194 -16.4490081042 5.0101085916
969 4 0.0929644 8.932408263 -17.0136951963 -3.6642016872
661 1 -0.228529 6.932977444 -14.9055250656 2.2306644252
1199 4 0.0745526 7.190398417 -15.8307621357 1.7470087164
1225 4 0.120643 7.2002299745 -15.0815362893 3.3040083708
1366 4 0.109034 9.485628819 -14.5549986762 3.5326845072
732 1 -0.223022 10.6307565175 -12.8741775132 -0.1470638412
1360 4 0.110897 10.604957563 -12.5725722204 -1.2335083308
731 1 -0.224555 10.474659813 -13.9673470938 3.4130294604
733 1 -0.219162 10.502046031 -12.7825439607 4.4426605752
1357 4 0.118857 10.553928226 -13.6333521453 2.3310473436
1363 4 0.115256 10.36980566 -13.1259640746 -4.7392661027
540 1 -0.21868 5.5878545445 -14.8141907247 -4.1864620381
946 4 0.0982935 4.701048058 -14.2504760703 -4.5795796826
993 4 0.115027 5.436116892 -14.7791081646 -3.0828343428
653 1 -0.228317 5.4097967465 -14.6348133705 2.1217866228
660 1 -0.221793 5.1357924235 -13.3108020405 2.932372548
1150 4 0.10518 5.050388171 -14.5324082004 1.0648490616
1188 4 0.105389 4.0746475475 -13.0281966843 3.0242912868
1224 4 0.138768 5.444408567 -13.5812893269 4.0025846448
534 1 -0.220114 6.96927129 -14.1445551639 -4.4756739461
542 1 -0.208867 8.061119054 -14.9451706026 -3.66738471
601 1 -0.240822 6.0418592865 -12.7792526331 -1.009253628
907 4 0.125887 7.217642492 -14.1701377557 4.6162632528
960 4 0.110248 9.014993346 -14.3949204702 -3.8096177256
964 4 0.090969 6.963301284 -13.0208660001 -4.2448935348
998 4 0.113043 7.793274261 -14.8909385001 -2.5924850748
1073 4 0.0954894 6.2563056925 -13.7524383621 -1.5613801488
1362 4 0.103806 9.931436648 -16.0984069119 -2.4757571808
1368 4 0.0896143 9.8858324355 -13.7140644744 -0.0361595484
657 1 -0.233813 7.797206884 -13.7126432193 1.6237305504
662 1 -0.220393 7.526140183 -12.4695686271 2.554964298
1105 4 0.133848 5.7773311635 -13.009720368 0.045391338
1153 4 0.127708 7.5099121905 -13.5137423082 0.5593113504
1208 4 0.104447 8.881947498 -13.8852883125 1.5984505944
1226 4 0.118095 7.760154942 -12.69405213 3.6201715776
710 1 -0.236233 -10.7168359493 -12.2225694513 -0.4228609968
1296 4 0.0964883 -8.0900925355 -12.4080058404 0.8088664788
1324 4 0.131354 -11.0782368958 -11.9513341359 -1.4280002352
1312 4 0.104415 -8.252017103 -12.1856168187 -3.9308694012
696 1 -0.225673 -7.3026676965 -11.8804209867 0.2105605404
698 1 -0.225724 -6.9878683325 -10.5181105719 0.890069382
699 1 -0.237518 -7.573189516 -10.1889778119 -3.3747103692
703 1 -0.225262 -8.5054817625 -11.4308555577 -3.1551534396
714 1 -0.21887 -10.9184492114 -11.0727740754 0.63148716
716 1 -0.240946 -10.0151328155 -11.0631993042 -3.3768085032
1288 4 0.121013 -7.782187107 -11.6631185622 -0.7776503388
1297 4 0.104298 -6.5182752415 -10.4285715006 -3.1090968396
1301 4 0.115916 -7.6120182455 -9.7754673807 -4.4072624959
1316 4 0.106729 -8.3075239445 -11.9791608147 -2.2345229448
1319 4 0.0929013 -10.1647714897 -10.2329619171 0.4751608248
1334 4 0.120847 -10.2152914809 -10.7761805769 -4.4263278814
1346 4 0.0941604 -10.7209628344 -11.9030862654 -3.1865333364
725 1 -0.224383 -11.8061673083 -12.0284559258 4.3236605556
1317 4 0.0994238 -9.5752405043 -12.3825728544 4.476343302
1347 4 0.124757 -11.7115043346 -11.6443430343 3.2772546036
1294 4 0.120079 -6.5441926485 -10.6118386056 1.9328317452
1298 4 0.0977341 -7.1887637725 -11.4082650819 4.0234636368
1325 4 0.101618 -9.0838616295 -10.4774177943 2.860780122
1331 4 0.12235 -10.7091625963 -11.5222647015 1.668681792
1351 4 0.0999048 -11.7904773271 -11.1092778906 5.0170887252
1291 4 0.12324 -6.373313072 -12.2165104164 -4.8415987505
697 1 -0.217012 -6.401030957 -12.156967308 4.2781156956
675 1 -0.227893 -4.9892903715 -11.9787119973 -0.828814104
679 1 -0.227039 -4.6173969025 -10.6462479396 -0.0799235532
688 1 -0.235478 -5.029540531 -11.7727796136 3.6994298688
1275 4 0.119727 -5.0388982785 -11.7677678193 2.5968143952
1274 4 0.0985992 -4.5773125765 -11.3404188516 -3.5042624676
1278 4 0.0920634 -4.7293108245 -10.6935981753 3.9968326872
1252 4 0.118511 -5.529931272 -11.7783150282 -1.796770314
700 1 -0.232341 -8.073390733 -9.0747886164 -2.358404964
709 1 -0.229473 -9.4877041068 -8.6707033506 -2.8678011948
720 1 -0.239361 -10.3917359559 -9.8742072087 -2.415719844
1299 4 0.0978453 -7.897654604 -9.870242655 0.9903294828
1300 4 0.0953601 -7.3770558665 -8.2188938346 -2.3563170648
1306 4 0.129659 -8.1677499945 -9.3938977878 -1.3166251416
1322 4 0.131809 -9.5255970616 -8.5071842112 -3.9485449008
1328 4 0.104631 -10.9366316701 -8.2945943694 -0.2860524252
1342 4 0.138065 -10.1992482743 -10.1777573769 -1.3716883656
1352 4 0.100973 -11.4865331871 -9.5910034293 -2.4862069116
702 1 -0.215757 -8.705548035 -8.3144919408 3.1421961828
712 1 -0.239695 -9.472314758 -9.6484520565 3.5055929916
724 1 -0.216033 -10.970881026 -9.2424219153 3.2134917996
1303 4 0.0998642 -7.6392623205 -8.5501958787 3.0631323528
1309 4 0.118198 -8.934587789 -7.9871544504 2.0666824596
1330 4 0.126939 -9.3142280515 -9.9210338241 4.5581500584
1348 4 0.115276 -11.1229882503 -8.8292854986 2.1845771208
1358 4 0.0981781 -11.7425260968 -10.1045253378 3.2632738668
715 1 -0.242876 -10.8173215741 -7.3038299589 0.2478459168
1332 4 0.126194 -10.8585430441 -7.4775970956 1.330933392
1259 4 0.116221 -4.3558064015 -10.856892906 1.0182193128
691 1 -0.237703 -5.9259653605 -9.7615540413 -0.0293329368
1270 4 0.121942 -4.420505157 -9.1907331114 -2.159133408
1277 4 0.1243 -6.310248961 -9.6269836242 -1.11098754
1282 4 0.0997667 -5.671647843 -8.7741557613 0.4177538316
1287 4 0.0979106 -5.448199047 -8.9959463598 3.4463232648
684 1 -0.224742 -4.341284125 -9.1248317565 -3.2904677304
705 1 -0.226218 -9.4712960665 -6.5525844342 -0.0871800264
1304 4 0.0928037 -8.564163131 -7.2273813951 0.0073997604
1327 4 0.101209 -9.8756905324 -7.6871200185 -2.4549600672
706 1 -0.239674 -8.9664041305 -7.1582635155 4.1654305476
718 1 -0.228003 -10.5243103629 -6.8927132205 4.110090984
729 1 -0.230197 -11.3673060078 -8.2093190634 4.3125660324
1318 4 0.11647 -8.625758431 -7.3850659083 -5.0142536856
1336 4 0.110834 -10.7962109695 -6.3924314253 3.1383581328
1355 4 0.120777 -11.2001624231 -8.6261208222 -4.8772557702
1601 4 0.096339 -7.0640095995 -6.6665092509 -4.0114377468
1281 4 0.1043 -5.373858258 -8.8883797896 -3.6238663404
1289 4 0.0953075 -6.3792593875 -7.1377675209 -0.0089656848
692 1 -0.234169 -5.7838697415 -6.3617622363 -0.5279007492
1279 4 0.12184 -6.084241591 -6.3546559608 -1.6203325968
689 1 -0.221845 -4.774251703 -8.2397638437 2.9754815256
1276 4 0.115828 -5.0716385495 -8.1396027606 1.8785361312
693 1 -0.224252 -4.9672582065 -6.8125245117 3.5904087792
1283 4 0.116045 -4.800453396 -6.8061662652 4.7301868116
1292 4 0.0952233 -6.013170091 -6.4153959156 3.40639731
1263 4 0.126755 -3.9860924585 -10.4026148943 -5.0051569954
678 1 -0.230868 -4.2184962635 -6.5917811538 -0.3430602612
1260 4 0.136506 -3.9797907855 -6.6422731113 0.7334052984
597 1 -0.238486 -1.231574333 -12.0998926953 -0.368350452
1058 4 0.0996929 -2.2294418835 -11.6082132336 -0.5120265744
1240 4 0.0929019 -2.068228031 -11.7729292194 -4.0299115608
1101 4 0.116854 -1.1824165455 -12.3865374081 0.7053926508
668 1 -0.2279 -2.404490988 -10.8394638303 -3.4832504232
1227 4 0.0916181 -0.3356706945 -9.9125062935 -3.6833100588
1244 4 0.12144 -2.244295827 -11.0084435814 -2.3861719764
599 1 -0.223305 1.314064654 -11.8181849739 -0.5757279696
504 1 -0.240289 2.0277883475 -11.5924298217 -4.5277383737
523 1 -0.226413 3.4249592755 -12.245982759 -4.7521015654
587 1 -0.228308 -0.081874368 -11.0724000609 -0.6572890908
874 4 0.111687 1.575844679 -11.2120570752 4.74357393
927 4 0.0913074 1.285541292 -12.3396359898 -4.1654776277
1020 4 0.112103 -0.2858732635 -10.6056299649 -1.6983422424
1069 4 0.0969625 2.1957539925 -11.0987306817 -0.733169898
1081 4 0.100733 -0.1261992935 -10.2215170734 0.0858290328
1103 4 0.120624 1.5142256885 -12.2364079878 0.4406286096
1195 4 0.1037 0.8486174005 -12.2936322063 3.2330095632